<preamble>

<basis_specs>
===============================================================================
C                    Z=   6    Mass=  12.010        Charge= 0.17977+309
Lmxo=2 Lmxkb= 1    BasisType=split      Semic=F
L=0  Nsemic=0  Cnfigmx=2
          n=1  nzeta=2  polorb=0  (2s)
            splnorm:   0.15000    
               vcte:    0.0000    
               rinn:    0.0000    
               qcoe:    0.0000    
               qyuk:    0.0000    
               qwid:   0.10000E-01
                rcs:    5.3826      3.4751    
            lambdas:    1.0000      1.0000    
L=1  Nsemic=0  Cnfigmx=2
          n=1  nzeta=2  polorb=1  (2p)  (to be polarized perturbatively)
            splnorm:   0.15000    
               vcte:    0.0000    
               rinn:    0.0000    
               qcoe:    0.0000    
               qyuk:    0.0000    
               qwid:   0.10000E-01
                rcs:    6.7408      3.7929    
            lambdas:    1.0000      1.0000    
L=2  Nsemic=0  Cnfigmx=3
          n=1  nzeta=0  polorb=0  (3d)  (perturbative polarization orbital)
-------------------------------------------------------------------------------
L=0  Nkbl=1  erefs: 0.17977+309
L=1  Nkbl=1  erefs: 0.17977+309
===============================================================================
</basis_specs>

<pseudopotential_header>
 C  pb rel pcec
 ONCVPSP-3.2018-04-23Hamann's oncvpsp                        
 2s 2.00r r= 1.20/2p 2.00r r= 1.26/                                    
</pseudopotential_header>
</preamble>
C                             # Symbol
C                             # Label
    6                         # Atomic number
     4.00000000000                             # Valence charge
     12.0100000000        # Mass 
     20.7380275770        # Self energy 
   2   5                      # Lmax for basis, no. of nl orbitals 
   1   4                      # Lmax for projectors, no. of nl KB projectors
# PAOs:__________________________
  0  2  1  0  2.000000   #orbital l, n, z, is_polarized, population
 500    0.1078668997476085E-01     5.382558297405666     # npts, delta, cutoff
     0.000000000000000        0.3644540003249358    
    0.1078668997476085E-01    0.3646952872349898    
    0.2157337994952171E-01    0.3654222994866373    
    0.3236006992428256E-01    0.3666320314507389    
    0.4314675989904342E-01    0.3683215566140586    
    0.5393344987380427E-01    0.3704867918414544    
    0.6472013984856512E-01    0.3731225109996790    
    0.7550682982332597E-01    0.3762223624753245    
    0.8629351979808683E-01    0.3797788904283188    
    0.9708020977284769E-01    0.3837835596717335    
    0.1078668997476085        0.3882267840586335    
    0.1186535897223694        0.3930979582419776    
    0.1294402796971302        0.3983854926588706    
    0.1402269696718911        0.4040768515765257    
    0.1510136596466519        0.4101585940243611    
    0.1618003496214128        0.4166164174248432    
    0.1725870395961737        0.4234352037251020    
    0.1833737295709345        0.4305990678219823    
    0.1941604195456954        0.4380914080651632    
    0.2049471095204562        0.4458949586162855    
    0.2157337994952171        0.4539918434366667    
    0.2265204894699779        0.4623636316722144    
    0.2373071794447388        0.4709913942015305    
    0.2480938694194997        0.4798557611119308    
    0.2588805593942605        0.4889369798681559    
    0.2696672493690214        0.4982149739399098    
    0.2804539393437822        0.5076694016569533    
    0.2912406293185431        0.5172797150642384    
    0.3020273192933039        0.5270252185545461    
    0.3128140092680647        0.5368851270620125    
    0.3236006992428256        0.5468386236069300    
    0.3343873892175865        0.5568649159900925    
    0.3451740791923473        0.5669432924436367    
    0.3559607691671082        0.5770531760547778    
    0.3667474591418690        0.5871741777889244    
    0.3775341491166299        0.5972861479492845    
    0.3883208390913908        0.6073692259211492    
    0.3991075290661516        0.6174038880605366    
    0.4098942190409124        0.6273709935985451    
    0.4206809090156733        0.6372518284447665    
    0.4314675989904342        0.6470281467850438    
    0.4422542889651950        0.6566822103809282    
    0.4530409789399559        0.6661968254902334    
    0.4638276689147167        0.6755553773397434    
    0.4746143588894776        0.6847418620930497    
    0.4854010488642384        0.6937409162676109    
    0.4961877388389993        0.7025378435664079    
    0.5069744288137601        0.7111186391002293    
    0.5177611187885209        0.7194700109868444    
    0.5285478087632819        0.7275793993234321    
    0.5393344987380427        0.7354349925378221    
    0.5501211887128036        0.7430257411332752    
    0.5609078786875644        0.7503413688498000    
    0.5716945686623253        0.7573723812731565    
    0.5824812586370861        0.7641100719299999    
    0.5932679486118470        0.7705465259146661    
    0.6040546385866078        0.7766746210995619    
    0.6148413285613686        0.7824880269871385    
    0.6256280185361295        0.7879812012668823    
    0.6364147085108904        0.7931493841460064    
    0.6472013984856513        0.7979885905270202    
    0.6579880884604121        0.8024956001098267    
    0.6687747784351730        0.8066679454997205    
    0.6795614684099338        0.8105038984064116    
    0.6903481583846947        0.8140024540222802    
    0.7011348483594555        0.8171633136710963    
    0.7119215383342163        0.8199868658211679    
    0.7227082283089772        0.8224741655591401    
    0.7334949182837380        0.8246269126230404    
    0.7442816082584989        0.8264474280950119    
    0.7550682982332598        0.8279386298560083    
    0.7658549882080207        0.8291040069062955    
    0.7766416781827815        0.8299475926570281    
    0.7874283681575424        0.8304739372993235    
    0.7982150581323032        0.8306880793584189    
    0.8090017481070640        0.8305955165412656    
    0.8197884380818249        0.8302021759866636    
    0.8305751280565857        0.8295143840275275    
    0.8413618180313466        0.8285388355751646    
    0.8521485080061074        0.8272825632355608    
    0.8629351979808684        0.8257529062674748    
    0.8737218879556292        0.8239574794918404    
    0.8845085779303901        0.8219041422612716    
    0.8952952679051509        0.8196009675975239    
    0.9060819578799117        0.8170562116036015    
    0.9168686478546726        0.8142782832556089    
    0.9276553378294334        0.8112757146775867    
    0.9384420278041943        0.8080571320003462    
    0.9492287177789551        0.8046312269027129    
    0.9600154077537160        0.8010067289306004    
    0.9708020977284768        0.7971923786849792    
    0.9815887877032378        0.7931969017294767    
    0.9923754776779986        0.7890289870393729    
     1.003162167652759        0.7846972422795508    
     1.013948857627520        0.7802102684399969    
     1.024735547602281        0.7755764885029237    
     1.035522237577042        0.7708041443224499    
     1.046308927551803        0.7659014134107025    
     1.057095617526564        0.7608762866729031    
     1.067882307501325        0.7557365818189319    
     1.078668997476085        0.7504899239607782    
     1.089455687450846        0.7451437335533165    
     1.100242377425607        0.7397052154548078    
     1.111029067400368        0.7341813495739034    
     1.121815757375129        0.7285788831130209    
     1.132602447349890        0.7229043244076137    
     1.143389137324651        0.7171639383539343    
     1.154175827299411        0.7113637434075228    
     1.164962517274172        0.7055095101470107    
     1.175749207248933        0.6996067612332673    
     1.186535897223694        0.6936607732296771    
     1.197322587198455        0.6876765793237767    
     1.208109277173216        0.6816589733042246    
     1.218895967147976        0.6756125182081959    
     1.229682657122737        0.6695415589688367    
     1.240469347097498        0.6634502362475335    
     1.251256037072259        0.6573424939950833    
     1.262042727047020        0.6512220875976880    
     1.272829417021781        0.6450925911986813    
     1.283616106996542        0.6389574050183787    
     1.294402796971303        0.6328197625100497    
     1.305189486946063        0.6266827371511896    
     1.315976176920824        0.6205492488088055    
     1.326762866895585        0.6144220700284356    
     1.337549556870346        0.6083038320726255    
     1.348336246845107        0.6021970308159329    
     1.359122936819868        0.5961040321672811    
     1.369909626794628        0.5900270773836365    
     1.380696316769389        0.5839682883352804    
     1.391483006744150        0.5779296723915961    
     1.402269696718911        0.5719131271552628    
     1.413056386693672        0.5659204450531359    
     1.423843076668433        0.5599533177258603    
     1.434629766643194        0.5540133402419776    
     1.445416456617954        0.5481020151588049    
     1.456203146592715        0.5422207564216555    
     1.466989836567476        0.5363708931111654    
     1.477776526542237        0.5305536730449435    
     1.488563216516998        0.5247702662385849    
     1.499349906491759        0.5190217682312452    
     1.510136596466520        0.5133092032810062    
     1.520923286441280        0.5076335274349199    
     1.531709976416041        0.5019956314784242    
     1.542496666390802        0.4963963437687263    
     1.553283356365563        0.4908364329565003    
     1.564070046340324        0.4853166106001562    
     1.574856736315085        0.4798375336767701    
     1.585643426289846        0.4743998069935645    
     1.596430116264606        0.4690039855037766    
     1.607216806239367        0.4636505765304905    
     1.618003496214128        0.4583400419019916    
     1.628790186188889        0.4530728000019931    
     1.639576876163650        0.4478492277380354    
     1.650363566138411        0.4426696624311360    
     1.661150256113171        0.4375344036297668    
     1.671936946087932        0.4324437148510077    
     1.682723636062693        0.4273978252517294    
     1.693510326037454        0.4223969312324527    
     1.704297016012215        0.4174411979765106    
     1.715083705986976        0.4125307609270049    
     1.725870395961737        0.4076657272039357    
     1.736657085936498        0.4028461769638669    
     1.747443775911258        0.3980721647042932    
     1.758230465886019        0.3933437205149067    
     1.769017155860780        0.3886608512777726    
     1.779803845835541        0.3840235418184492    
     1.790590535810302        0.3794317560099220    
     1.801377225785063        0.3748854378312028    
     1.812163915759823        0.3703845123823840    
     1.822950605734584        0.3659288868577915    
     1.833737295709345        0.3615184514789417    
     1.844523985684106        0.3571530803888023    
     1.855310675658867        0.3528326325089418    
     1.866097365633628        0.3485569523609541    
     1.876884055608389        0.3443258708536440    
     1.887670745583149        0.3401392060372175    
     1.898457435557910        0.3359967638258715    
     1.909244125532671        0.3318983386899387    
     1.920030815507432        0.3278437143188748    
     1.930817505482193        0.3238326642561500    
     1.941604195456954        0.3198649525072392    
     1.952390885431714        0.3159403341217081    
     1.963177575406476        0.3120585557504462    
     1.973964265381236        0.3082193561790601    
     1.984750955355997        0.3044224668383019    
     1.995537645330758        0.3006676122925407    
     2.006324335305519        0.2969545107070467    
     2.017111025280280        0.2932828742950272    
     2.027897715255040        0.2896524097451501    
     2.038684405229801        0.2860628186303655    
     2.049471095204562        0.2825137977987963    
     2.060257785179323        0.2790050397473453    
     2.071044475154084        0.2755362329788118    
     2.081831165128845        0.2721070623430656    
     2.092617855103606        0.2687172093630278    
     2.103404545078367        0.2653663525459861    
     2.114191235053128        0.2620541676808714    
     2.124977925027888        0.2587803281220872    
     2.135764615002649        0.2555445050603624    
     2.146551304977410        0.2523463677812526    
     2.157337994952171        0.2491855839116975    
     2.168124684926932        0.2460618196551614    
     2.178911374901693        0.2429747400158489    
     2.189698064876453        0.2399240090123595    
     2.200484754851214        0.2369092898813086    
     2.211271444825975        0.2339302452712462    
     2.222058134800736        0.2309865374273015    
     2.232844824775497        0.2280778283669691    
     2.243631514750258        0.2252037800473084    
     2.254418204725019        0.2223640545240210    
     2.265204894699779        0.2195583141026471    
     2.275991584674540        0.2167862214822421    
     2.286778274649301        0.2140474398918794    
     2.297564964624062        0.2113416332201885    
     2.308351654598823        0.2086684661383194    
     2.319138344573584        0.2060276042165267    
     2.329925034548344        0.2034187140346576    
     2.340711724523105        0.2008414632868505    
     2.351498414497866        0.1982955208806001    
     2.362285104472627        0.1957805570304773    
     2.373071794447388        0.1932962433467275    
     2.383858484422149        0.1908422529189430    
     2.394645174396909        0.1884182603949890    
     2.405431864371670        0.1860239420555090    
     2.416218554346431        0.1836589758841186    
     2.427005244321192        0.1813230416331661    
     2.437791934295953        0.1790158208859352    
     2.448578624270714        0.1767369971144481    
     2.459365314245475        0.1744862557348091    
     2.470152004220235        0.1722632841577628    
     2.480938694194996        0.1700677718372615    
     2.491725384169757        0.1678994103134874    
     2.502512074144518        0.1657578932554025    
     2.513298764119279        0.1636429164980543    
     2.524085454094040        0.1615541780808424    
     2.534872144068801        0.1594913782790512    
     2.545658834043562        0.1574542196358890    
     2.556445524018323        0.1554424069878032    
     2.567232213993083        0.1534556474919226    
     2.578018903967844        0.1514936506482072    
     2.588805593942605        0.1495561283230853    
     2.599592283917366        0.1476427947673921    
     2.610378973892127        0.1457533666345752    
     2.621165663866888        0.1438875629949381    
     2.631952353841648        0.1420451053500482    
     2.642739043816409        0.1402257176442537    
     2.653525733791170        0.1384291262755352    
     2.664312423765931        0.1366550601038897    
     2.675099113740692        0.1349032504588350    
     2.685885803715453        0.1331734311448672    
     2.696672493690214        0.1314653384462042    
     2.707459183664974        0.1297787111296318    
     2.718245873639735        0.1281132904469882    
     2.729032563614496        0.1264688201355418    
     2.739819253589257        0.1248450464179468    
     2.750605943564018        0.1232417180002610    
     2.761392633538779        0.1216585860697727    
     2.772179323513539        0.1200954042912466    
     2.782966013488300        0.1185519288029069    
     2.793752703463061        0.1170279182109369    
     2.804539393437822        0.1155231335834867    
     2.815326083412583        0.1140373384435978    
     2.826112773387344        0.1125702987615786    
     2.836899463362105        0.1111217829465776    
     2.847686153336865        0.1096915618374370    
     2.858472843311626        0.1082794086930097    
     2.869259533286387        0.1068850991817334    
     2.880046223261148        0.1055084113706731    
     2.890832913235909        0.1041491257140027    
     2.901619603210670        0.1028070250409566    
     2.912406293185430        0.1014818945432715    
     2.923192983160191        0.1001735217621899    
     2.933979673134952        0.9888169657498973E-01
     2.944766363109713        0.9760621118110989E-01
     2.955553053084474        0.9634686008786994E-01
     2.966339743059235        0.9510344009584452E-01
     2.977126433033995        0.9387575028386526E-01
     2.987913123008756        0.9266359199369745E-01
     2.998699812983518        0.9146676881443593E-01
     3.009486502958278        0.9028508656658962E-01
     3.020273192933039        0.8911835328591289E-01
     3.031059882907800        0.8796637920697871E-01
     3.041846572882561        0.8682897674654440E-01
     3.052633262857322        0.8570596048668247E-01
     3.063419952832083        0.8459714715771585E-01
     3.074206642806844        0.8350235562099570E-01
     3.084993332781604        0.8242140685148870E-01
     3.095780022756365        0.8135412392022659E-01
     3.106566712731126        0.8030033197660805E-01
     3.117353402705887        0.7925985823059814E-01
     3.128140092680648        0.7823253193479696E-01
     3.138926782655409        0.7721818436641043E-01
     3.149713472630169        0.7621664880915495E-01
     3.160500162604930        0.7522776053506609E-01
     3.171286852579691        0.7425135678625419E-01
     3.182073542554452        0.7328727675659537E-01
     3.192860232529213        0.7233536157340122E-01
     3.203646922503974        0.7139545427903199E-01
     3.214433612478734        0.7046739981249742E-01
     3.225220302453495        0.6955104499103244E-01
     3.236006992428256        0.6864623849168346E-01
     3.246793682403017        0.6775283083287852E-01
     3.257580372377778        0.6687067435600597E-01
     3.268367062352539        0.6599962320702758E-01
     3.279153752327300        0.6513953331809609E-01
     3.289940442302060        0.6429026238921288E-01
     3.300727132276821        0.6345166986991180E-01
     3.311513822251582        0.6262361694100571E-01
     3.322300512226343        0.6180596649636276E-01
     3.333087202201104        0.6099858312474668E-01
     3.343873892175865        0.6020133309170827E-01
     3.354660582150625        0.5941408432155931E-01
     3.365447272125386        0.5863670637939874E-01
     3.376233962100147        0.5786907045322297E-01
     3.387020652074908        0.5711104933610719E-01
     3.397807342049669        0.5636251740848533E-01
     3.408594032024430        0.5562335062050179E-01
     3.419380721999191        0.5489342647446371E-01
     3.430167411973951        0.5417262400737459E-01
     3.440954101948712        0.5346082377359410E-01
     3.451740791923473        0.5275790782757001E-01
     3.462527481898234        0.5206375970668799E-01
     3.473314171872995        0.5137826441422949E-01
     3.484100861847756        0.5070130840243200E-01
     3.494887551822517        0.5003277955567028E-01
     3.505674241797278        0.4937256717375244E-01
     3.516460931772039        0.4872056195531234E-01
     3.527247621746799        0.4807665598137049E-01
     3.538034311721560        0.4744074269896514E-01
     3.548821001696321        0.4681271690493017E-01
     3.559607691671082        0.4619247472979756E-01
     3.570394381645843        0.4557991362181599E-01
     3.581181071620604        0.4497493233110773E-01
     3.591967761595364        0.4437743089395211E-01
     3.602754451570125        0.4378731061718650E-01
     3.613541141544886        0.4320447406276885E-01
     3.624327831519647        0.4262882503244225E-01
     3.635114521494408        0.4206026855254832E-01
     3.645901211469169        0.4149871085896557E-01
     3.656687901443930        0.4094405938219628E-01
     3.667474591418690        0.4039622273257514E-01
     3.678261281393451        0.3985511068562176E-01
     3.689047971368212        0.3932063416752043E-01
     3.699834661342973        0.3879270524075280E-01
     3.710621351317734        0.3827123708985222E-01
     3.721408041292495        0.3775614400730207E-01
     3.732194731267255        0.3724734137957172E-01
     3.742981421242016        0.3674474567328273E-01
     3.753768111216777        0.3624827442152829E-01
     3.764554801191538        0.3575784621031380E-01
     3.775341491166299        0.3527338066514391E-01
     3.786128181141060        0.3479479843773805E-01
     3.796914871115820        0.3432202119289833E-01
     3.807701561090581        0.3385497159549852E-01
     3.818488251065342        0.3339357329761809E-01
     3.829274941040103        0.3293775092580337E-01
     3.840061631014864        0.3248743006847948E-01
     3.850848320989625        0.3204253726348268E-01
     3.861635010964386        0.3160299998573379E-01
     3.872421700939146        0.3116874663504579E-01
     3.883208390913907        0.3073970652405794E-01
     3.893995080888668        0.3031580986631729E-01
     3.904781770863429        0.2989698776447757E-01
     3.915568460838190        0.2948317219863786E-01
     3.926355150812951        0.2907429601480392E-01
     3.937141840787712        0.2867029291349334E-01
     3.947928530762473        0.2827109743845656E-01
     3.958715220737234        0.2787664496553233E-01
     3.969501910711994        0.2748687169163098E-01
     3.980288600686755        0.2710171462383789E-01
     3.991075290661516        0.2672111156865655E-01
     4.001861980636277        0.2634500112136287E-01
     4.012648670611037        0.2597332265549122E-01
     4.023435360585799        0.2560601631243636E-01
     4.034222050560559        0.2524302299119001E-01
     4.045008740535320        0.2488428433818661E-01
     4.055795430510081        0.2452974273727512E-01
     4.066582120484842        0.2417934129980976E-01
     4.077368810459602        0.2383302385485370E-01
     4.088155500434364        0.2349073493951175E-01
     4.098942190409124        0.2315241978936777E-01
     4.109728880383885        0.2281802432904250E-01
     4.120515570358646        0.2248749516286589E-01
     4.131302260333407        0.2216077956565716E-01
     4.142088950308167        0.2183782547362808E-01
     4.152875640282929        0.2151858147538608E-01
     4.163662330257690        0.2120299680305294E-01
     4.174449020232450        0.2089102132349194E-01
     4.185235710207212        0.2058260552963832E-01
     4.196022400181972        0.2027770053194663E-01
     4.206809090156733        0.1997625804993328E-01
     4.217595780131494        0.1967823040382900E-01
     4.228382470106255        0.1938357050633428E-01
     4.239169160081016        0.1909223185447348E-01
     4.249955850055777        0.1880416852155891E-01
     4.260742540030537        0.1851933514924634E-01
     4.271529230005298        0.1823768693969448E-01
     4.282315919980059        0.1795917964781847E-01
     4.293102609954820        0.1768376957364748E-01
     4.303889299929581        0.1741141355477152E-01
     4.314675989904342        0.1714206895888597E-01
     4.325462679879102        0.1687569367643038E-01
     4.336249369853864        0.1661224611331617E-01
     4.347036059828624        0.1635168518375344E-01
     4.357822749803385        0.1609397030316130E-01
     4.368609439778146        0.1583906138117104E-01
     4.379396129752907        0.1558691881471772E-01
     4.390182819727667        0.1533750348121640E-01
     4.400969509702429        0.1509077673183049E-01
     4.411756199677189        0.1484670038482007E-01
     4.422542889651950        0.1460523671897686E-01
     4.433329579626711        0.1436634846714240E-01
     4.444116269601472        0.1412999880980849E-01
     4.454902959576232        0.1389615136879716E-01
     4.465689649550994        0.1366477020102527E-01
     4.476476339525754        0.1343581979234385E-01
     4.487263029500515        0.1320926505145777E-01
     4.498049719475276        0.1298507130392297E-01
     4.508836409450037        0.1276320428621773E-01
     4.519623099424797        0.1254363013989367E-01
     4.530409789399559        0.1232631540579671E-01
     4.541196479374319        0.1211122701836368E-01
     4.551983169349080        0.1189833229999113E-01
     4.562769859323841        0.1168759895547447E-01
     4.573556549298602        0.1147899506652022E-01
     4.584343239273363        0.1127248908632550E-01
     4.595129929248124        0.1106804983422725E-01
     4.605916619222885        0.1086564649041950E-01
     4.616703309197645        0.1066524859073650E-01
     4.627489999172407        0.1046682602150366E-01
     4.638276689147167        0.1027034901445209E-01
     4.649063379121928        0.1007578814169797E-01
     4.659850069096689        0.9883114310785448E-02
     4.670636759071450        0.9692298759791778E-02
     4.681423449046211        0.9503313052494324E-02
     4.692210139020972        0.9316129073598458E-02
     4.702996828995732        0.9130719024025333E-02
     4.713783518970494        0.8947055416258790E-02
     4.724570208945254        0.8765111069750770E-02
     4.735356898920015        0.8584859106384294E-02
     4.746143588894776        0.8406272945992836E-02
     4.756930278869537        0.8229326301936004E-02
     4.767716968844297        0.8053993176730299E-02
     4.778503658819059        0.7880247857734108E-02
     4.789290348793819        0.7708064912886355E-02
     4.800077038768580        0.7537419186498569E-02
     4.810863728743341        0.7368285795097621E-02
     4.821650418718102        0.7200640123321245E-02
     4.832437108692862        0.7034457819863574E-02
     4.843223798667624        0.6869714793470219E-02
     4.854010488642384        0.6706387208984172E-02
     4.864797178617145        0.6544451483436949E-02
     4.875583868591906        0.6383884282190646E-02
     4.886370558566667        0.6224662515125401E-02
     4.897157248541427        0.6066763332873703E-02
     4.907943938516189        0.5910164123099803E-02
     4.918730628490949        0.5754842506826141E-02
     4.929517318465710        0.5600776334800152E-02
     4.940304008440471        0.5447943683908712E-02
     4.951090698415232        0.5296322853633580E-02
     4.961877388389992        0.5145892362549763E-02
     4.972664078364754        0.4996630944864994E-02
     4.983450768339514        0.4848517547002843E-02
     4.994237458314275        0.4701531324221238E-02
     5.005024148289036        0.4555651637276057E-02
     5.015810838263797        0.4410858049121346E-02
     5.026597528238558        0.4267130321648294E-02
     5.037384218213319        0.4124448412465062E-02
     5.048170908188079        0.3982792471708354E-02
     5.058957598162841        0.3842142838897545E-02
     5.069744288137602        0.3702480039822567E-02
     5.080530978112362        0.3563784783468001E-02
     5.091317668087123        0.3426037958971752E-02
     5.102104358061884        0.3289220632621861E-02
     5.112891048036645        0.3153314044880486E-02
     5.123677738011406        0.3018299607448384E-02
     5.134464427986167        0.2884158900359067E-02
     5.145251117960927        0.2750873669106286E-02
     5.156037807935689        0.2618425821792668E-02
     5.166824497910449        0.2486797426365938E-02
     5.177611187885210        0.2355970707771886E-02
     5.188397877859971        0.2225928045251096E-02
     5.199184567834732        0.2096651969611253E-02
     5.209971257809492        0.1968125160539460E-02
     5.220757947784254        0.1840330443591242E-02
     5.231544637759014        0.1713250789029113E-02
     5.242331327733775        0.1586869307018260E-02
     5.253118017708536        0.1461169246440350E-02
     5.263904707683297        0.1336133992024824E-02
     5.274691397658057        0.1211747061830613E-02
     5.285478087632819        0.1087992094393418E-02
     5.296264777607579        0.9648528885703537E-03
     5.307051467582340        0.8423133394964090E-03
     5.317838157557101        0.7203574740850447E-03
     5.328624847531862        0.5989694397395936E-03
     5.339411537506622        0.4781335017548288E-03
     5.350198227481384        0.3578334054782927E-03
     5.360984917456144        0.2380548636331875E-03
     5.371771607430905        0.1187821160866702E-03
     5.382558297405666         0.000000000000000    
  0  2  2  0  0.000000   #orbital l, n, z, is_polarized, population
 500    0.6964117117336918E-02     3.475094441551122     # npts, delta, cutoff
     0.000000000000000        0.3011544584175241    
    0.6964117117336918E-02    0.3012979428334037    
    0.1392823423467384E-01    0.3017335983252450    
    0.2089235135201075E-01    0.3024592050749477    
    0.2785646846934767E-01    0.3034740335333135    
    0.3482058558668459E-01    0.3047770641654336    
    0.4178470270402151E-01    0.3063669886600340    
    0.4874881982135842E-01    0.3082422117330004    
    0.5571293693869534E-01    0.3104008533550168    
    0.6267705405603226E-01    0.3128407513803790    
    0.6964117117336918E-01    0.3155594645680580    
    0.7660528829070609E-01    0.3185542759880000    