<preamble>

<basis_specs>
===============================================================================
H                    Z=   1    Mass=  1.0100        Charge= 0.17977+309
Lmxo=1 Lmxkb= 1    BasisType=split      Semic=F
L=0  Nsemic=0  Cnfigmx=1
          n=1  nzeta=2  polorb=1  (1s)  (to be polarized perturbatively)
            splnorm:   0.15000    
               vcte:    0.0000    
               rinn:    0.0000    
               qcoe:    0.0000    
               qyuk:    0.0000    
               qwid:   0.10000E-01
                rcs:    6.5183      4.1037    
            lambdas:    1.0000      1.0000    
L=1  Nsemic=0  Cnfigmx=2
          n=1  nzeta=0  polorb=0  (2p)  (perturbative polarization orbital)
-------------------------------------------------------------------------------
L=0  Nkbl=1  erefs: 0.17977+309
L=1  Nkbl=1  erefs: 0.17977+309
===============================================================================
</basis_specs>

<pseudopotential_header>
 H  pb rel nc  
 ONCVPSP-3.2018-04-24Hamann's oncvpsp                        
 1s 1.00r r= 1.01/2p 0.00r r= 0.71/                                    
</pseudopotential_header>
</preamble>
H                             # Symbol
H                             # Label
    1                         # Atomic number
     1.00000000000                             # Valence charge
     1.01000000000        # Mass 
     2.27454191355        # Self energy 
   1   3                      # Lmax for basis, no. of nl orbitals 
   1   4                      # Lmax for projectors, no. of nl KB projectors
# PAOs:__________________________
  0  1  1  0  1.000000   #orbital l, n, z, is_polarized, population
 500    0.1306280634900490E-01     6.518340368153447     # npts, delta, cutoff
     0.000000000000000         1.563376163171336    
    0.1306280634900490E-01     1.563007143467609    
    0.2612561269800981E-01     1.561925291961013    
    0.3918841904701471E-01     1.560126242211353    
    0.5225122539601961E-01     1.557615975864382    
    0.6531403174502451E-01     1.554402776989535    
    0.7837683809402941E-01     1.550497135477283    
    0.9143964444303432E-01     1.545911630073947    
    0.1045024507920392         1.540660791217646    
    0.1175652571410441         1.534760946389478    
    0.1306280634900490         1.528230051248632    
    0.1436908698390539         1.521087510110935    
    0.1567536761880588         1.513353989496103    
    0.1698164825370637         1.505051228528404    
    0.1828792888860686         1.496201849932491    
    0.1959420952350736         1.486829175224546    
    0.2090049015840784         1.476957047463500    
    0.2220677079330833         1.466609664606052    
    0.2351305142820883         1.455811426112298    
    0.2481933206310931         1.444586794988276    
    0.2612561269800980         1.432960176941381    
    0.2743189333291030         1.420955817779626    
    0.2873817396781079         1.408597719622134    
    0.3004445460271128         1.395909575923140    
    0.3135073523761177         1.382914724759833    
    0.3265701587251226         1.369636119314528    
    0.3396329650741275         1.356096314004809    
    0.3526957714231324         1.342317464298878    
    0.3657585777721373         1.328321337905721    
    0.3788213841211422         1.314129334762286    
    0.3918841904701471         1.299762513058827    
    0.4049469968191520         1.285241618453249    
    0.4180098031681569         1.270587113628155    
    0.4310726095171618         1.255819205437573    
    0.4441354158661667         1.240957867072472    
    0.4571982222151716         1.226022852936266    
    0.4702610285641765         1.211033704257325    
    0.4833238349131814         1.196009743861141    
    0.4963866412621863         1.180970058960816    
    0.5094494476111913         1.165933470813331    
    0.5225122539601961         1.150918510438896    
    0.5355750603092010         1.135943315447976    
    0.5486378666582059         1.121025602776363    
    0.5617006730072108         1.106182586704142    
    0.5747634793562157         1.091430889959108    
    0.5878262857052207         1.076786451551440    
    0.6008890920542256         1.062264430922307    
    0.6139518984032304         1.047879110735194    
    0.6270147047522353         1.033643801089496    
    0.6400775111012402         1.019570748012406    
    0.6531403174502451         1.005671049060659    
    0.6662031237992501        0.9919545787508198    
    0.6792659301482550        0.9784299263402571    
    0.6923287364972599        0.9651043482051028    
    0.7053915428462647        0.9519837367155776    
    0.7184543491952696        0.9390726071022866    
    0.7315171555442745        0.9263741033519439    
    0.7445799618932795        0.9138900236802026    
    0.7576427682422844        0.9016208656178161    
    0.7707055745912893        0.8895658902282054    
    0.7837683809402942        0.8777232044654730    
    0.7968311872892990        0.8660898601961265    
    0.8098939936383039        0.8546619679594539    
    0.8229567999873089        0.8434348231432487    
    0.8360196063363138        0.8324030419150031    
    0.8490824126853187        0.8215607039830872    
    0.8621452190343236        0.8109014990749018    
    0.8752080253833285        0.8004188739155274    
    0.8882708317323333        0.7901061764724334    
    0.9013336380813383        0.7799567943011227    
    0.9143964444303432        0.7699642839787819    
    0.9274592507793481        0.7601224888459954    
    0.9405220571283530        0.7504256425814849    
    0.9535848634773579        0.7408684565031121    
    0.9666476698263629        0.7314461889081202    
    0.9797104761753677        0.7221546951702258    
    0.9927732825243726        0.7129904590610422    
     1.005836088873377        0.7039505973058805    
     1.018898895222383        0.6950328579051448    
     1.031961701571387        0.6862354026946594    
     1.045024507920392        0.6775564946621874    
     1.058087314269397        0.6689944185195493    
     1.071150120618402        0.6605474863185937    
     1.084212926967407        0.6522140356069084    
     1.097275733316412        0.6439924290266268    
     1.110338539665417        0.6358810540848785    
     1.123401346014422        0.6278783228366891    
     1.136464152363426        0.6199826715154594    
     1.149526958712431        0.6121925602278953    
     1.162589765061436        0.6045064726080668    
     1.175652571410441        0.5969229154928962    
     1.188715377759446        0.5894404185904588    
     1.201778184108451        0.5820575341518893    
     1.214840990457456        0.5747728366443742    
     1.227903796806461        0.5675849224257982    
     1.240966603155466        0.5604924094212929    
     1.254029409504471        0.5534939368018991    
     1.267092215853476        0.5465881646654046    
     1.280155022202480        0.5397737737195167    
     1.293217828551485        0.5330494649676367    
     1.306280634900490        0.5264139593972468    
     1.319343441249495        0.5198659976710134    
     1.332406247598500        0.5134043398208106    
     1.345469053947505        0.5070277649447194    
     1.358531860296510        0.5007350709070484    
     1.371594666645515        0.4945250740415120    
     1.384657472994520        0.4883966088576217    
     1.397720279343525        0.4823485277503639    
     1.410783085692529        0.4763797007132177    
     1.423845892041534        0.4704890150545508    
     1.436908698390539        0.4646753751174700    
     1.449971504739544        0.4589377020031519    
     1.463034311088549        0.4532749332976924    
     1.476097117437554        0.4476860228024824    
     1.489159923786559        0.4421699402681915    
     1.502222730135564        0.4367256711323377    
     1.515285536484569        0.4313522162604528    
     1.528348342833574        0.4260485916908882    
     1.541411149182579        0.4208138283832567    
     1.554473955531583        0.4156469719705271    
     1.567536761880588        0.4105470825147474    
     1.580599568229593        0.4055132342664242    
     1.593662374578598        0.4005445154275505    
     1.606725180927603        0.3956400279182714    
     1.619787987276608        0.3907988871471733    
     1.632850793625613        0.3860202217851881    
     1.645913599974618        0.3813031735431130    
     1.658976406323623        0.3766468969527212    
     1.672039212672628        0.3720505591514532    
     1.685102019021632        0.3675133396706490    
     1.698164825370637        0.3630344302273181    
     1.711227631719642        0.3586130345194241    
     1.724290438068647        0.3542483680246536    
     1.737353244417652        0.3499396578026459    
     1.750416050766657        0.3456861423006514    
     1.763478857115662        0.3414870711625957    
     1.776541663464667        0.3373417050415149    
     1.789604469813672        0.3332493154153289    
     1.802667276162677        0.3292091844059214    
     1.815730082511682        0.3252206046014956    
     1.828792888860686        0.3212828788821644    
     1.841855695209691        0.3173953202487382    
     1.854918501558696        0.3135572516546762    
     1.867981307907701        0.3097680058411599    
     1.881044114256706        0.3060269251752493    
     1.894106920605711        0.3023333614910838    
     1.907169726954716        0.2986866759340824    
     1.920232533303721        0.2950862388081070    
     1.933295339652726        0.2915314294255393    
     1.946358146001731        0.2880216359602325    
     1.959420952350735        0.2845562553032893    
     1.972483758699740        0.2811346929216275    
     1.985546565048745        0.2777563627192859    
     1.998609371397750        0.2744206869014231    
     2.011672177746755        0.2711270958409668    
     2.024734984095760        0.2678750279478641    
     2.037797790444765        0.2646639295408877    
     2.050860596793770        0.2614932547219559    
     2.063923403142775        0.2583624652529122    
     2.076986209491780        0.2552710304347246    
     2.090049015840784        0.2522184269890529    
     2.103111822189789        0.2492041389421391    
     2.116174628538794        0.2462276575109771    
     2.129237434887799        0.2432884809917103    
     2.142300241236804        0.2403861146502154    
     2.155363047585809        0.2375200706148216    
     2.168425853934814        0.2346898677711237    
     2.181488660283819        0.2318950316588413    
     2.194551466632824        0.2291350943706791    
     2.207614272981829        0.2264095944531443    
     2.220677079330834        0.2237180768092759    
     2.233739885679838        0.2210600926032424    
     2.246802692028843        0.2184351991667644    
     2.259865498377848        0.2158429599073203    
     2.272928304726853        0.2132829442180905    
     2.285991111075858        0.2107547273896010    
     2.299053917424863        0.2082578905230246    
     2.312116723773868        0.2057920204450985    
     2.325179530122873        0.2033567096246194    
     2.338242336471878        0.2009515560904768    
     2.351305142820883        0.1985761633511875    
     2.364367949169887        0.1962301403158918    
     2.377430755518892        0.1939131012167754    
     2.390493561867897        0.1916246655328827    
     2.403556368216902        0.1893644579152834    
     2.416619174565907        0.1871321081135600    
     2.429681980914912        0.1849272509035816    
     2.442744787263917        0.1827495260165340    
     2.455807593612922        0.1805985780691692    
     2.468870399961927        0.1784740564952475    
     2.481933206310932        0.1763756154781392    
     2.494996012659937        0.1743029138845575    
     2.508058819008941        0.1722556151993929    
     2.521121625357946        0.1702333874616229    
     2.534184431706951        0.1682359032012680    
     2.547247238055956        0.1662628393773690    
     2.560310044404961        0.1643138773169586    
     2.573372850753966        0.1623887026550040    
     2.586435657102971        0.1604870052752950    
     2.599498463451976        0.1586084792522553    
     2.612561269800981        0.1567528227936532    
     2.625624076149986        0.1549197381841923    
     2.638686882498990        0.1531089317299577    
     2.651749688847995        0.1513201137036999    
     2.664812495197000        0.1495529982909363    
     2.677875301546005        0.1478073035368491    
     2.690938107895010        0.1460827512939643    
     2.704000914244015        0.1443790671705892    
     2.717063720593020        0.1426959804799982    
     2.730126526942025        0.1410332241903425    
     2.743189333291030        0.1393905348752738    
     2.756252139640035        0.1377676526652639    
     2.769314945989040        0.1361643211996063    
     2.782377752338044        0.1345802875790844    
     2.795440558687049        0.1330153023192908    
     2.808503365036054        0.1314691193045883    
     2.821566171385059        0.1299414957426978    
     2.834628977734064        0.1284321921198991    
     2.847691784083069        0.1269409721568354    
     2.860754590432074        0.1254676027649091    
     2.873817396781079        0.1240118540032747    
     2.886880203130084        0.1225734990362990    
     2.899943009479089        0.1211523140917966    
     2.913005815828093        0.1197480784196796    
     2.926068622177098        0.1183605742508460    
     2.939131428526103        0.1169895867573767    
     2.952194234875108        0.1156349040117452    
     2.965257041224113        0.1142963169513673    
     2.978319847573118        0.1129736193330541    
     2.991382653922123        0.1116666077011357    
     3.004445460271127        0.1103750813390929    
     3.017508266620132        0.1090988422545883    
     3.030571072969138        0.1078376951275109    
     3.043633879318143        0.1065914472896373    
     3.056696685667147        0.1053599086552462    
     3.069759492016152        0.1041428917049442    
     3.082822298365157        0.1029402114356380    
     3.095885104714162        0.1017516853514568    
     3.108947911063167        0.1005771334151951    
     3.122010717412172        0.9941637802265944E-01
     3.135073523761177        0.9826924396018591E-01
     3.148136330110181        0.9713555837760766E-01
     3.161199136459186        0.9601515075405111E-01
     3.174261942808192        0.9490785286690019E-01
     3.187324749157196        0.9381349875956599E-01
     3.200387555506201        0.9273192471030603E-01
     3.213450361855206        0.9166296920163083E-01
     3.226513168204211        0.9060647288974516E-01
     3.239575974553216        0.8956227857454160E-01
     3.252638780902221        0.8853023116994198E-01
     3.265701587251226        0.8751017767461697E-01
     3.278764393600230        0.8650196714307649E-01
     3.291827199949235        0.8550545065712611E-01
     3.304890006298240        0.8452048129768899E-01
     3.317952812647246        0.8354691411698602E-01
     3.331015618996250        0.8258460611107120E-01
     3.344078425345255        0.8163341619271949E-01
     3.357141231694260        0.8069320516466309E-01
     3.370204038043265        0.7976383569316998E-01
     3.383266844392270        0.7884517228196491E-01
     3.396329650741275        0.7793708124648777E-01
     3.409392457090280        0.7703943068848401E-01
     3.422455263439284        0.7615209047092676E-01
     3.435518069788289        0.7527493219326471E-01
     3.448580876137294        0.7440782916699443E-01
     3.461643682486299        0.7355065639155157E-01
     3.474706488835304        0.7270329053051927E-01
     3.487769295184309        0.7186560988815117E-01
     3.500832101533314        0.7103749438620224E-01
     3.513894907882319        0.7021882554106876E-01
     3.526957714231324        0.6940948644123190E-01
     3.540020520580329        0.6860936172500122E-01
     3.553083326929333        0.6781833755855689E-01
     3.566146133278338        0.6703630161428580E-01
     3.579208939627343        0.6626314304940997E-01
     3.592271745976348        0.6549875248490289E-01
     3.605334552325353        0.6474302198469152E-01
     3.618397358674358        0.6399584503514151E-01
     3.631460165023363        0.6325711652482058E-01
     3.644522971372368        0.6252673272453987E-01
     3.657585777721373        0.6180459126766829E-01
     3.670648584070378        0.6109059113071792E-01
     3.683711390419383        0.6038463261419715E-01
     3.696774196768387        0.5968661732372883E-01
     3.709837003117392        0.5899644815143079E-01
     3.722899809466397        0.5831402925755515E-01
     3.735962615815402        0.5763926605238456E-01
     3.749025422164407        0.5697206517838172E-01
     3.762088228513412        0.5631233449259000E-01
     3.775151034862417        0.5565998304928180E-01
     3.788213841211422        0.5501492108285234E-01
     3.801276647560427        0.5437705999095560E-01
     3.814339453909432        0.5374631231788043E-01
     3.827402260258436        0.5312259173816312E-01
     3.840465066607441        0.5250581304043434E-01
     3.853527872956446        0.5189589211149783E-01
     3.866590679305451        0.5129274592063721E-01
     3.879653485654456        0.5069629250414960E-01
     3.892716292003461        0.5010645095010181E-01
     3.905779098352466        0.4952314138330844E-01
     3.918841904701471        0.4894628495052687E-01
     3.931904711050476        0.4837580380586826E-01
     3.944967517399481        0.4781162109642118E-01
     3.958030323748486        0.4725366094808547E-01
     3.971093130097490        0.4670184845161349E-01
     3.984155936446495        0.4615610964885646E-01
     3.997218742795500        0.4561637151921299E-01
     4.010281549144505        0.4508256196627779E-01
     4.023344355493510        0.4455460980468721E-01
     4.036407161842515        0.4403244474715986E-01
     4.049469968191520        0.4351599739172883E-01
     4.062532774540525        0.4300519920916457E-01
     4.075595580889530        0.4249998253058410E-01
     4.088658387238534        0.4200028053524529E-01
     4.101721193587539        0.4150602723852308E-01
     4.114783999936544        0.4101715748006631E-01
     4.127846806285549        0.4053360691213097E-01
     4.140909612634554        0.4005531198808902E-01
     4.153972418983559        0.3958220995110923E-01
     4.167035225332564        0.3911423882300918E-01
     4.180098031681569        0.3865133739327406E-01
     4.193160838030574        0.3819344520824148E-01
     4.206223644379579        0.3774050256044920E-01
     4.219286450728584        0.3729245047814419E-01
     4.232349257077589        0.3684923071494962E-01
     4.245412063426594        0.3641078573968865E-01
     4.258474869775599        0.3597705872636167E-01
     4.271537676124603        0.3554799354427644E-01
     4.284600482473608        0.3512353474832658E-01
     4.297663288822613        0.3470362756941844E-01
     4.310726095171618        0.3428821790504240E-01
     4.323788901520623        0.3387725230998821E-01
     4.336851707869628        0.3347067798720043E-01
     4.349914514218633        0.3306844277877319E-01
     4.362977320567637        0.3267049515708147E-01
     4.376040126916642        0.3227678421604735E-01
     4.389102933265647        0.3188725966253879E-01
     4.402165739614652        0.3150187180789894E-01
     4.415228545963657        0.3112057155960397E-01
     4.428291352312662        0.3074331041304810E-01
     4.441354158661667        0.3037004044345269E-01
     4.454416965010672        0.3000071429789843E-01
     4.467479771359677        0.2963528518747801E-01
     4.480542577708682        0.2927370687956833E-01
     4.493605384057687        0.2891593369021912E-01
     4.506668190406692        0.2856192047665715E-01
     4.519730996755697        0.2821162262990375E-01
     4.532793803104702        0.2786499606750386E-01
     4.545856609453706        0.2752199722636491E-01
     4.558919415802711        0.2718258305570370E-01
     4.571982222151716        0.2684671101009975E-01
     4.585045028500721        0.2651433904265302E-01
     4.598107834849726        0.2618542559824460E-01
     4.611170641198731        0.2585992960689870E-01
     4.624233447547736        0.2553781047724407E-01
     4.637296253896740        0.2521902809007375E-01
     4.650359060245745        0.2490354279200039E-01
     4.663421866594750        0.2459131538920719E-01
     4.676484672943755        0.2428230714129160E-01
     4.689547479292760        0.2397647975520065E-01
     4.702610285641765        0.2367379537925695E-01
     4.715673091990770        0.2337421659727243E-01
     4.728735898339774        0.2307770642275016E-01
     4.741798704688780        0.2278422829317132E-01
     4.754861511037785        0.2249374606436738E-01
     4.767924317386790        0.2220622400497364E-01
     4.780987123735795        0.2192162679096578E-01
     4.794049930084800        0.2163991950027581E-01
     4.807112736433805        0.2136106760748696E-01
     4.820175542782809        0.2108503697860681E-01
     4.833238349131814        0.2081179386591477E-01
     4.846301155480819        0.2054130490288651E-01
     4.859363961829824        0.2027353709919070E-01
     4.872426768178829        0.2000845783575961E-01
     4.885489574527834        0.1974603485992860E-01
     4.898552380876839        0.1948623628064778E-01
     4.911615187225843        0.1922903056376150E-01
     4.924677993574848        0.1897438652735537E-01
     4.937740799923853        0.1872227333717126E-01
     4.950803606272858        0.1847266050208479E-01
     4.963866412621863        0.1822551786964984E-01
     4.976929218970868        0.1798081562170511E-01
     4.989992025319873        0.1773852427004262E-01
     5.003054831668877        0.1749861465213890E-01
     5.016117638017882        0.1726105792694295E-01
     5.029180444366887        0.1702582557072656E-01
     5.042243250715893        0.1679288937299108E-01
     5.055306057064898        0.1656222143243122E-01
     5.068368863413903        0.1633379415295666E-01
     5.081431669762908        0.1610758023976519E-01
     5.094494476111912        0.1588355269547381E-01
     5.107557282460917        0.1566168481630122E-01
     5.120620088809922        0.1544195018830303E-01
     5.133682895158927        0.1522432268365998E-01
     5.146745701507932        0.1500877645701315E-01
     5.159808507856937        0.1479528594185293E-01
     5.172871314205942        0.1458382584695465E-01
     5.185934120554946        0.1437437115286494E-01
     5.198996926903951        0.1416689710843094E-01
     5.212059733252956        0.1396137922738054E-01
     5.225122539601961        0.1375779328494627E-01
     5.238185345950966        0.1355611531453425E-01
     5.251248152299971        0.1335632160443990E-01
     5.264310958648976        0.1315838869460209E-01
     5.277373764997980        0.1296229337340516E-01
     5.290436571346985        0.1276801267452063E-01
     5.303499377695990        0.1257552387379046E-01
     5.316562184044995        0.1238480448615355E-01
     5.329624990394001        0.1219583226260709E-01
     5.342687796743006        0.1200858518721242E-01
     5.355750603092011        0.1182304147413739E-01
     5.368813409441015        0.1163917956473723E-01
     5.381876215790020        0.1145697812467247E-01
     5.394939022139025        0.1127641604106648E-01
     5.408001828488030        0.1109747241969367E-01
     5.421064634837035        0.1092012658220916E-01
     5.434127441186040        0.1074435806341085E-01
     5.447190247535045        0.1057014660853605E-01
     5.460253053884049        0.1039747217059497E-01
     5.473315860233054        0.1022631490773175E-01
     5.486378666582059        0.1005665518062451E-01
     5.499441472931064        0.9888473549914820E-02
     5.512504279280069        0.9721750773669170E-02
     5.525567085629074        0.9556467804874791E-02
     5.538629891978079        0.9392605788960071E-02
     5.551692698327083        0.9230146061351798E-02
     5.564755504676088        0.9069070145059132E-02
     5.577818311025093        0.8909359748287209E-02
     5.590881117374098        0.8750996762082745E-02
     5.603943923723103        0.8593963258001861E-02
     5.617006730072108        0.8438241485812223E-02
     5.630069536421114        0.8283813871219936E-02
     5.643132342770118        0.8130663013624233E-02
     5.656195149119123        0.7978771683898309E-02
     5.669257955468128        0.7828122822199744E-02
     5.682320761817133        0.7678699535800360E-02
     5.695383568166138        0.7530485096948267E-02
     5.708446374515143        0.7383462940751893E-02
     5.721509180864148        0.7237616663088806E-02
     5.734571987213152        0.7092930018542247E-02
     5.747634793562157        0.6949386918354957E-02
     5.760697599911162        0.6806971428413439E-02
     5.773760406260167        0.6665667767252290E-02
     5.786823212609172        0.6525460304082130E-02
     5.799886018958177        0.6386333556839626E-02
     5.812948825307182        0.6248272190262815E-02
     5.826011631656186        0.6111261013981944E-02
     5.839074438005191        0.5975284980638509E-02
     5.852137244354196        0.5840329184022408E-02
     5.865200050703201        0.5706378857229994E-02
     5.878262857052206        0.5573419370846151E-02
     5.891325663401211        0.5441436231139960E-02
     5.904388469750216        0.5310415078287086E-02
     5.917451276099221        0.5180341684608776E-02
     5.930514082448226        0.5051201952830863E-02
     5.943576888797231        0.4922981914361453E-02
     5.956639695146236        0.4795667727590601E-02
     5.969702501495241        0.4669245676202016E-02
     5.982765307844246        0.4543702167509801E-02
     5.995828114193251        0.4419023730810018E-02
     6.008890920542255        0.4295197015750684E-02
     6.021953726891260        0.4172208790718752E-02
     6.035016533240265        0.4050045941247434E-02
     6.048079339589270        0.3928695468434185E-02
     6.061142145938275        0.3808144487381992E-02
     6.074204952287280        0.3688380225654028E-02
     6.087267758636285        0.3569390021744593E-02
     6.100330564985289        0.3451161323569373E-02
     6.113393371334294        0.3333681686965010E-02
     6.126456177683299        0.3216938774210724E-02
     6.139518984032304        0.3100920352562235E-02
     6.152581790381309        0.2985614292801463E-02
     6.165644596730314        0.2871008567800574E-02
     6.178707403079319        0.2757091251103877E-02
     6.191770209428324        0.2643850515517912E-02
     6.204833015777329        0.2531274631722079E-02
     6.217895822126334        0.2419351966890465E-02
     6.230958628475339        0.2308070983328059E-02
     6.244021434824344        0.2197420237115668E-02
     6.257084241173349        0.2087388376794726E-02
     6.270147047522354        0.1977964142011544E-02
     6.283209853871358        0.1869136362228104E-02
     6.296272660220363        0.1760893955420129E-02
     6.309335466569368        0.1653225926792827E-02
     6.322398272918373        0.1546121367374155E-02
     6.335461079267378        0.1439569453318628E-02
     6.348523885616383        0.1333559443815555E-02
     6.361586691965388        0.1228080680386584E-02
     6.374649498314392        0.1123122585539147E-02
     6.387712304663397        0.1018674661555727E-02
     6.400775111012402        0.9147264848031898E-03
     6.413837917361407        0.8112677228897305E-03
     6.426900723710412        0.7082881067727364E-03
     6.439963530059417        0.6057774460391868E-03
     6.453026336408422        0.5037256238900580E-03
     6.466089142757427        0.4021225958948973E-03
     6.479151949106432        0.3009580837661314E-03
     6.492214755455437        0.2002227696019605E-03
     6.505277561804442        0.9990664396007210E-04
     6.518340368153447         0.000000000000000    
  0  1  2  0  0.000000   #orbital l, n, z, is_polarized, population
 500    0.8223906514906910E-02     4.103729350938548     # npts, delta, cutoff
     0.000000000000000         1.991482457084079    
    0.8223906514906910E-02     1.991274610940913    
    0.1644781302981382E-01     1.990684355591931    
    0.2467171954472073E-01     1.989701498641860    
    0.3289562605962764E-01     1.988327336423982    
    0.4111953257453455E-01     1.986563688027527    
    0.4934343908944146E-01     1.984412880043695    
    0.5756734560434837E-01     1.981877735065359    
    0.6579125211925528E-01     1.978961558792103    
    0.7401515863416219E-01     1.975668125269402    
    0.8223906514906910E-01     1.972001660273833    
    0.9046297166397602E-01     1.967966822956862    
    0.9868687817888291E-01     1.963568685895254    
    0.1069107846937898         1.958812713715302    
    0.1151346912086967         1.953704740471261    
    0.1233585977236036         1.948250945968145    
    0.1315825042385106         1.942457831226179    
    0.1398064107534175         1.936332193289306    
    0.1480303172683244         1.929881099582528    