<preamble>

<basis_specs>
===============================================================================
N                    Z=   7    Mass=  14.010        Charge= 0.17977+309
Lmxo=2 Lmxkb= 1    BasisType=split      Semic=F
L=0  Nsemic=0  Cnfigmx=2
          n=1  nzeta=2  polorb=0  (2s)
            splnorm:   0.15000    
               vcte:    0.0000    
               rinn:    0.0000    
               qcoe:    0.0000    
               qyuk:    0.0000    
               qwid:   0.10000E-01
                rcs:    4.6136      2.9416    
            lambdas:    1.0000      1.0000    
L=1  Nsemic=0  Cnfigmx=2
          n=1  nzeta=2  polorb=1  (2p)  (to be polarized perturbatively)
            splnorm:   0.15000    
               vcte:    0.0000    
               rinn:    0.0000    
               qcoe:    0.0000    
               qyuk:    0.0000    
               qwid:   0.10000E-01
                rcs:    5.9241      3.1314    
            lambdas:    1.0000      1.0000    
L=2  Nsemic=0  Cnfigmx=3
          n=1  nzeta=0  polorb=0  (3d)  (perturbative polarization orbital)
-------------------------------------------------------------------------------
L=0  Nkbl=1  erefs: 0.17977+309
L=1  Nkbl=1  erefs: 0.17977+309
===============================================================================
</basis_specs>

<pseudopotential_header>
 N  pb rel pcec
 ONCVPSP-3.2018-04-23Hamann's oncvpsp                        
 2s 2.00r r= 1.21/2p 3.00r r= 1.36/                                    
</pseudopotential_header>
</preamble>
N                             # Symbol
N                             # Label
    7                         # Atomic number
     5.00000000000                             # Valence charge
     14.0100000000        # Mass 
     33.1736227726        # Self energy 
   2   5                      # Lmax for basis, no. of nl orbitals 
   1   4                      # Lmax for projectors, no. of nl KB projectors
# PAOs:__________________________
  0  2  1  0  2.000000   #orbital l, n, z, is_polarized, population
 500    0.9245734264080733E-02     4.613621397776286     # npts, delta, cutoff
     0.000000000000000        0.7154122495605937    
    0.9245734264080733E-02    0.7155867292939062    
    0.1849146852816147E-01    0.7161176836959247    
    0.2773720279224220E-01    0.7170014492679200    
    0.3698293705632293E-01    0.7182362881034097    
    0.4622867132040367E-01    0.7198197701693381    
    0.5547440558448440E-01    0.7217487758043322    
    0.6472013984856513E-01    0.7240194992438276    
    0.7396587411264587E-01    0.7266274530663990    
    0.8321160837672660E-01    0.7295674736052813    
    0.9245734264080734E-01    0.7328337273910110    
    0.1017030769048881        0.7364197187000917    
    0.1109488111689688        0.7403182982899609    
    0.1201945454330495        0.7445216734035687    
    0.1294402796971303        0.7490214191279837    
    0.1386860139612110        0.7538084911903534    
    0.1479317482252917        0.7588732402715195    
    0.1571774824893725        0.7642054279124084    
    0.1664232167534532        0.7697942440812152    
    0.1756689510175339        0.7756283264602339    
    0.1849146852816147        0.7816957815002361    
    0.1941604195456954        0.7879842072776321    
    0.2034061538097761        0.7944807181753434    
    0.2126518880738569        0.8011719713926897    
    0.2218976223379376        0.8080441952727919    
    0.2311433566020183        0.8150832194182619    
    0.2403890908660991        0.8222745065474932    
    0.2496348251301798        0.8296031860251062    
    0.2588805593942605        0.8370540889810599    
    0.2681262936583413        0.8446117849141656    
    0.2773720279224220        0.8522606196574107    
    0.2866177621865028        0.8599847545646292    
    0.2958634964505835        0.8677682067616472    
    0.3051092307146642        0.8755948902893036    
    0.3143549649787449        0.8834486579519453    
    0.3236006992428256        0.8913133436727635    
    0.3328464335069064        0.8991728051468482    
    0.3420921677709871        0.9070109665747969    
    0.3513379020350679        0.9148118612535266    
    0.3605836362991486        0.9225596737974393    
    0.3698293705632293        0.9302387817617225    
    0.3790751048273100        0.9378337964409396    
    0.3883208390913908        0.9453296026197253    
    0.3975665733554715        0.9527113970586290    
    0.4068123076195523        0.9599647255067635    
    0.4160580418836330        0.9670755180437579    
    0.4253037761477138        0.9740301225666881    
    0.4345495104117945        0.9808153362526615    
    0.4437952446758752        0.9874184348447101    
    0.4530409789399559        0.9938271996270711    
    0.4622867132040366         1.000029941976017    
    0.4715324474681174         1.006015525393184    
    0.4807781817321981         1.011773384950312    
    0.4900239159962789         1.017293544096747    
    0.4992696502603596         1.022566628803598    
    0.5085153845244403         1.027583879041144    
    0.5177611187885210         1.032337157608448    
    0.5270068530526018         1.036818956355665    
    0.5362525873166826         1.041022399860557    
    0.5454983215807633         1.044941246640187    
    0.5547440558448440         1.048569887997203    
    0.5639897901089247         1.051903344616680    
    0.5732355243730055         1.054937261044369    
    0.5824812586370862         1.057667898190125    
    0.5917269929011669         1.060092124010958    
    0.6009727271652476         1.062207402536783    
    0.6102184614293283         1.064011781408134    
    0.6194641956934092         1.065503878099063    
    0.6287099299574899         1.066682864999968    
    0.6379556642215706         1.067548453534475    
    0.6472013984856513         1.068100877481385    
    0.6564471327497321         1.068340875667771    
    0.6656928670138128         1.068269674192020    
    0.6749386012778935         1.067888968326759    
    0.6841843355419742         1.067200904240916    
    0.6934300698060550         1.066208060667972    
    0.7026758040701357         1.064913430634252    
    0.7119215383342165         1.063320403346555    
    0.7211672725982972         1.061432746323412    
    0.7304130068623780         1.059254587838616    
    0.7396587411264587         1.056790399729812    
    0.7489044753905394         1.054044980609178    
    0.7581502096546201         1.051023439497647    
    0.7673959439187008         1.047731179889250    
    0.7766416781827816         1.044173884237958    
    0.7858874124468623         1.040357498846236    
    0.7951331467109430         1.036288219122577    
    0.8043788809750237         1.031972475164830    
    0.8136246152391046         1.027416917617014    
    0.8228703495031853         1.022628403740108    
    0.8321160837672660         1.017613983631361    
    0.8413618180313467         1.012380886438088    
    0.8506075522954275         1.006936507836891    
    0.8598532865595082         1.001288388733141    
    0.8690990208235889        0.9954442362396819    
    0.8783447550876696        0.9894118557278178    
    0.8875904893517503        0.9831991425202292    
    0.8968362236158312        0.9768141158159621    
    0.9060819578799119        0.9702648659537975    
    0.9153276921439926        0.9635595494561662    
    0.9245734264080733        0.9567063713454170    
    0.9338191606721541        0.9497135691236257    
    0.9430648949362348        0.9425893961760687    
    0.9523106292003155        0.9353421047755800    
    0.9615563634643962        0.9279799287170324    
    0.9708020977284770        0.9205110656237419    
    0.9800478319925577        0.9129436589806204    
    0.9892935662566384        0.9052857799617574    
    0.9985393005207192        0.8975454091316262    
     1.007785034784800        0.8897304181105561    
     1.017030769048881        0.8818485513046609    
     1.026276503312961        0.8739074078096188    
     1.035522237577042        0.8659144236038987    
     1.044767971841123        0.8578768541533833    
     1.054013706105204        0.8498017575535752    
     1.063259440369284        0.8416959783363550    
     1.072505174633365        0.8335661320698221    
     1.081750908897446        0.8254185908773325    
     1.090996643161527        0.8172594699996636    
     1.100242377425607        0.8090946155169477    
     1.109488111689688        0.8009295933416645    
     1.118733845953769        0.7927696795857261    
     1.127979580217849        0.7846198523894715    
     1.137225314481930        0.7764847853045177    
     1.146471048746011        0.7683688422560457    
     1.155716783010092        0.7602760743173950    
     1.164962517274172        0.7522102178109936    
     1.174208251538253        0.7441746938092411    
     1.183453985802334        0.7361726142671092    
     1.192699720066415        0.7282067775777419    
     1.201945454330495        0.7202796780220259    
     1.211191188594576        0.7123935151324944    
     1.220436922858657        0.7045502469497360    
     1.229682657122737        0.6967516766307494    
     1.238928391386818        0.6889994850762884    
     1.248174125650899        0.6812952565178634    
     1.257419859914980        0.6736404642461201    
     1.266665594179061        0.6660364757633928    
     1.275911328443141        0.6584845645658910    
     1.285157062707222        0.6509859107997187    
     1.294402796971303        0.6435416060227300    
     1.303648531235383        0.6361526573564137    
     1.312894265499464        0.6288199913150400    
     1.322139999763545        0.6215444574744230    
     1.331385734027626        0.6143268320458374    
     1.340631468291706        0.6071678212832786    
     1.349877202555787        0.6000680648209068    
     1.359122936819868        0.5930281388408767    
     1.368368671083948        0.5860485589386533    
     1.377614405348029        0.5791297829804746    
     1.386860139612110        0.5722722139973476    
     1.396105873876191        0.5654762028164256    
     1.405351608140271        0.5587420505140558    
     1.414597342404352        0.5520700108526586    
     1.423843076668433        0.5454602925891118    
     1.433088810932514        0.5389130617202801    
     1.442334545196594        0.5324284437168407    
     1.451580279460675        0.5260065255274593    
     1.460826013724756        0.5196473573718943    
     1.470071747988837        0.5133509547393106    
     1.479317482252917        0.5071173002035143    
     1.488563216516998        0.5009463451021393    
     1.497808950781079        0.4948380111691712    
     1.507054685045160        0.4887921921204750    
     1.516300419309240        0.4828087551610003    
     1.525546153573321        0.4768875424216626    
     1.534791887837402        0.4710283723377623    
     1.544037622101482        0.4652310409672591    
     1.553283356365563        0.4594953232533561    
     1.562529090629644        0.4538209742307622    
     1.571774824893725        0.4482077301798258    
     1.581020559157805        0.4426553097303478    
     1.590266293421886        0.4371634149170299    
     1.599512027685967        0.4317317321884714    
     1.608757761950047        0.4263599333717744    
     1.618003496214128        0.4210476765944320    
     1.627249230478209        0.4157946071653850    
     1.636494964742290        0.4106003584167986    
     1.645740699006371        0.4054645525083055    
     1.654986433270451        0.4003868011951301    
     1.664232167534532        0.3953667065617087    
     1.673477901798613        0.3904038617221286    
     1.682723636062693        0.3854978514887968    
     1.691969370326774        0.3806482530106880    
     1.701215104590855        0.3758546363823385    
     1.710460838854936        0.3711165652249279    
     1.719706573119016        0.3664335972404597    
     1.728952307383097        0.3618052847403094    
     1.738198041647178        0.3572311751490797    
     1.747443775911259        0.3527108114848518    
     1.756689510175339        0.3482437328168423    
     1.765935244439420        0.3438294747013175    
     1.775180978703501        0.3394675695968155    
     1.784426712967581        0.3351575472593779    
     1.793672447231662        0.3308989351187832    
     1.802918181495743        0.3266912586364697    
     1.812163915759824        0.3225340416459564    
     1.821409650023905        0.3184268066765572    
     1.830655384287985        0.3143690752609717    
     1.839901118552066        0.3103603682275516    
     1.849146852816147        0.3064002059778281    
     1.858392587080227        0.3024881087499058    
     1.867638321344308        0.2986235968684779    
     1.876884055608389        0.2948061909818723    
     1.886129789872470        0.2910354122864859    
     1.895375524136550        0.2873107827397200    
     1.904621258400631        0.2836318252612816    
     1.913866992664712        0.2799980639242701    
     1.923112726928792        0.2764090241352908    
     1.932358461192873        0.2728642328044837    
     1.941604195456954        0.2693632185063008    
     1.950849929721035        0.2659055116316560    
     1.960095663985115        0.2624906445304507    
     1.969341398249196        0.2591181516446583    
     1.978587132513277        0.2557875696391743    
     1.987832866777358        0.2524984375186993    
     1.997078601041438        0.2492502967438998    
     2.006324335305519        0.2460426913277687    
     2.015570069569600        0.2428751679384152    
     2.024815803833681        0.2397472759862827    
     2.034061538097761        0.2366585677199346    
     2.043307272361842        0.2336085983010313    
     2.052553006625923        0.2305969258820801    
     2.061798740890004        0.2276231116698049    
     2.071044475154084        0.2246867199921053    
     2.080290209418165        0.2217873183572800    
     2.089535943682246        0.2189244775090940    
     2.098781677946326        0.2160977714753776    
     2.108027412210407        0.2133067776185240    
     2.117273146474488        0.2105510766754115    
     2.126518880738569        0.2078302527989311    
     2.135764615002649        0.2051438935872854    
     2.145010349266730        0.2024915901184444    
     2.154256083530811        0.1998729369755797    
     2.163501817794891        0.1972875322763139    
     2.172747552058973        0.1947349776922242    
     2.181993286323053        0.1922148784695341    
     2.191239020587134        0.1897268434432095    
     2.200484754851214        0.1872704850520930    
     2.209730489115295        0.1848454193494863    
     2.218976223379376        0.1824512660131198    
     2.228221957643457        0.1800876483513437    
     2.237467691907538        0.1777541933080439    
     2.246713426171618        0.1754505314650260    
     2.255959160435699        0.1731762970429184    
     2.265204894699780        0.1709311279000149    
     2.274450628963860        0.1687146655295818    
     2.283696363227941        0.1665265550553765    
     2.292942097492022        0.1643664452256820    
     2.302187831756103        0.1622339884058898    
     2.311433566020183        0.1601288405696674    
     2.320679300284264        0.1580506612888063    
     2.329925034548345        0.1559991137218710    
     2.339170768812425        0.1539738646016270    
     2.348416503076506        0.1519745842213608    
     2.357662237340587        0.1500009464201925    
     2.366907971604668        0.1480526285673576    
     2.376153705868748        0.1461293115455564    
     2.385399440132829        0.1442306797334650    
     2.394645174396910        0.1423564209873829    
     2.403890908660991        0.1405062266221002    
     2.413136642925072        0.1386797913910766    
     2.422382377189152        0.1368768134658973    
     2.431628111453233        0.1350969944151064    
     2.440873845717313        0.1333400391824240    
     2.450119579981394        0.1316056560644427    
     2.459365314245475        0.1298935566877640    
     2.468611048509556        0.1282034559856524    
     2.477856782773637        0.1265350721742756    
     2.487102517037717        0.1248881267284904    
     2.496348251301798        0.1232623443572421    
     2.505593985565879        0.1216574529786455    
     2.514839719829959        0.1200731836947015    
     2.524085454094040        0.1185092707657325    
     2.533331188358121        0.1169654515845288    
     2.542576922622202        0.1154414666502814    
     2.551822656886282        0.1139370595422571    
     2.561068391150363        0.1124519768932747    
     2.570314125414444        0.1109859683630342    
     2.579559859678525        0.1095387866112537    
     2.588805593942605        0.1081101872706848    
     2.598051328206686        0.1066999289199940    
     2.607297062470767        0.1053077730565740    
     2.616542796734847        0.1039334840692402    
     2.625788530998928        0.1025768292108612    
     2.635034265263009        0.1012375785709680    
     2.644279999527090        0.9991550504829343E-01
     2.653525733791171        0.9861038432330568E-01
     2.662771468055251        0.9732199483071968E-01
     2.672017202319332        0.9605011773203925E-01
     2.681262936583412        0.9479453688808943E-01
     2.690508670847493        0.9355503883157659E-01
     2.699754405111574        0.9233141273971564E-01
     2.709000139375655        0.9112345040687728E-01
     2.718245873639736        0.8993094621731094E-01
     2.727491607903816        0.8875369711792233E-01
     2.736737342167897        0.8759150259115682E-01
     2.745983076431978        0.8644416462794241E-01
     2.755228810696059        0.8531148770074234E-01
     2.764474544960139        0.8419327873669856E-01
     2.773720279224220        0.8308934709090908E-01
     2.782966013488301        0.8199950451980026E-01
     2.792211747752381        0.8092356515462210E-01
     2.801457482016462        0.7986134547509784E-01
     2.810703216280543        0.7881266428318506E-01
     2.819948950544624        0.7777734267699045E-01
     2.829194684808704        0.7675520402481874E-01
     2.838440419072785        0.7574607393939758E-01
     2.847686153336866        0.7474978025223467E-01
     2.856931887600946        0.7376615298814782E-01
     2.866177621865027        0.7279502433994915E-01
     2.875423356129108        0.7183622864331764E-01
     2.884669090393189        0.7088960235182336E-01
     2.893914824657270        0.6995498401213937E-01
     2.903160558921350        0.6903221423941684E-01
     2.912406293185431        0.6812113569287173E-01
     2.921652027449512        0.6722159305152448E-01
     2.930897761713593        0.6633343299014124E-01
     2.940143495977673        0.6545650415536013E-01
     2.949389230241754        0.6459065714201070E-01
     2.958634964505835        0.6373574446962409E-01
     2.967880698769915        0.6289162055914228E-01
     2.977126433033996        0.6205814170980525E-01
     2.986372167298077        0.6123516607627666E-01
     2.995617901562158        0.6042255364592614E-01
     3.004863635826238        0.5962016621633160E-01
     3.014109370090319        0.5882786737297872E-01
     3.023355104354400        0.5804552246716334E-01
     3.032600838618480        0.5727299859409501E-01
     3.041846572882561        0.5651016457120669E-01
     3.051092307146642        0.5575689091665718E-01
     3.060338041410723        0.5501304982806191E-01
     3.069583775674803        0.5427851516140342E-01
     3.078829509938884        0.5355316241015950E-01
     3.088075244202965        0.5283686868462673E-01
     3.097320978467045        0.5212951269146428E-01
     3.106566712731127        0.5143097471342658E-01
     3.115812446995207        0.5074113658930933E-01
     3.125058181259288        0.5005988169409026E-01
     3.134303915523369        0.4938709491929030E-01
     3.143549649787449        0.4872266265352208E-01
     3.152795384051530        0.4806647276324973E-01
     3.162041118315611        0.4741841457374245E-01
     3.171286852579692        0.4677837885024548E-01
     3.180532586843772        0.4614625777933652E-01
     3.189778321107853        0.4552194495048974E-01
     3.199024055371934        0.4490533533783886E-01
     3.208269789636014        0.4429632528213258E-01
     3.217515523900095        0.4369481247290183E-01
     3.226761258164176        0.4310069593080897E-01
     3.236006992428257        0.4251387599020136E-01
     3.245252726692337        0.4193425428185111E-01
     3.254498460956418        0.4136173371590329E-01
     3.263744195220499        0.4079621846500202E-01
     3.272989929484579        0.4023761394761585E-01
     3.282235663748660        0.3968582681154549E-01
     3.291481398012741        0.3914076491763421E-01
     3.300727132276822        0.3860233732365238E-01
     3.309972866540902        0.3807045426837484E-01
     3.319218600804983        0.3754502715584294E-01
     3.328464335069064        0.3702596853980470E-01
     3.337710069333145        0.3651319210834982E-01
     3.346955803597226        0.3600661266871286E-01
     3.356201537861306        0.3550614613226342E-01
     3.365447272125387        0.3501170949966713E-01
     3.374693006389468        0.3452322084623567E-01
     3.383938740653548        0.3404059930744051E-01
     3.393184474917629        0.3356376506460527E-01
     3.402430209181710        0.3309263933077092E-01
     3.411675943445791        0.3262714433672619E-01
     3.420921677709871        0.3216720331721873E-01
     3.430167411973952        0.3171274049732247E-01
     3.439413146238033        0.3126368107897780E-01
     3.448658880502113        0.3081995122769042E-01
     3.457904614766194        0.3038147805940335E-01
     3.467150349030275        0.2994818962752099E-01
     3.476396083294356        0.2952001491009777E-01
     3.485641817558436        0.2909688379718507E-01
     3.494887551822517        0.2867872707833051E-01
     3.504133286086598        0.2826547643024274E-01
     3.513379020350679        0.2785706440459990E-01
     3.522624754614760        0.2745342441601505E-01
     3.531870488878840        0.2705449073015238E-01
     3.541116223142921        0.2666019845198800E-01
     3.550361957407001        0.2627048351422744E-01
     3.559607691671082        0.2588528266585997E-01
     3.568853425935163        0.2550453346086186E-01
     3.578099160199244        0.2512817424704209E-01
     3.587344894463325        0.2475614415502594E-01
     3.596590628727405        0.2438838308738599E-01
     3.605836362991486        0.2402483170790339E-01
     3.615082097255567        0.2366543143096963E-01
     3.624327831519647        0.2331012441112345E-01
     3.633573565783728        0.2295885353271773E-01
     3.642819300047809        0.2261156239972590E-01
     3.652065034311890        0.2226819532567129E-01
     3.661310768575970        0.2192869732368976E-01
     3.670556502840051        0.2159301409671635E-01
     3.679802237104132        0.2126109202780363E-01
     3.689047971368212        0.2093287817055904E-01
     3.698293705632293        0.2060832023970791E-01
     3.707539439896374        0.2028736660177805E-01
     3.716785174160455        0.1996996626590191E-01
     3.726030908424535        0.1965606887474247E-01
     3.735276642688616        0.1934562469553151E-01
     3.744522376952697        0.1903858461122596E-01
     3.753768111216778        0.1873490011177838E-01
     3.763013845480859        0.1843452328551865E-01
     3.772259579744939        0.1813740681065103E-01
     3.781505314009020        0.1784350394685750E-01
     3.790751048273101        0.1755276852701177E-01
     3.799996782537181        0.1726515494900029E-01
     3.809242516801262        0.1698061816764932E-01
     3.818488251065343        0.1669911368675578E-01
     3.827733985329424        0.1642059755122378E-01
     3.836979719593504        0.1614502633930059E-01
     3.846225453857585        0.1587235715491454E-01
     3.855471188121666        0.1560254762011223E-01
     3.864716922385746        0.1533555586759294E-01
     3.873962656649827        0.1507134053334170E-01
     3.883208390913908        0.1480986074935593E-01
     3.892454125177989        0.1455107613646740E-01
     3.901699859442069        0.1429494679725681E-01
     3.910945593706150        0.1404143330906022E-01
     3.920191327970231        0.1379049671706626E-01
     3.929437062234312        0.1354209852750225E-01
     3.938682796498392        0.1329620070090878E-01
     3.947928530762473        0.1305276564550104E-01
     3.957174265026554        0.1281175621061605E-01
     3.966419999290634        0.1257313568024429E-01
     3.975665733554715        0.1233686776664495E-01
     3.984911467818796        0.1210291660404338E-01
     3.994157202082877        0.1187124674240968E-01
     4.003402936346958        0.1164182314131722E-01
     4.012648670611038        0.1141461116388094E-01
     4.021894404875119        0.1118957657077160E-01
     4.031140139139199        0.1096668551430872E-01
     4.040385873403280        0.1074590453262823E-01
     4.049631607667362        0.1052720054392461E-01
     4.058877341931442        0.1031054084076811E-01
     4.068123076195523        0.1009589308449145E-01
     4.077368810459603        0.9883225299650968E-02
     4.086614544723684        0.9672505868556874E-02
     4.095860278987765        0.9463703525873210E-02
     4.105106013251846        0.9256787353285960E-02
     4.114351747515927        0.9051726774240414E-02
     4.123597481780007        0.8848491548741347E-02
     4.132843216044088        0.8647051768222549E-02
     4.142088950308168        0.8447377850479096E-02
     4.151334684572249        0.8249440534663161E-02
     4.160580418836330        0.8053210876345142E-02
     4.169826153100411        0.7858660242631365E-02
     4.179071887364492        0.7665760307347937E-02
     4.188317621628572        0.7474483046282015E-02
     4.197563355892653        0.7284800732482851E-02
     4.206809090156733        0.7096685931620455E-02
     4.216054824420814        0.6910111497404528E-02
     4.225300558684896        0.6725050567054037E-02
     4.234546292948976        0.6541476556828483E-02
     4.243792027213057        0.6359363157610994E-02
     4.253037761477137        0.6178684330546179E-02
     4.262283495741218        0.5999414302730523E-02
     4.271529230005298        0.5821527562958489E-02
     4.280774964269379        0.5644998857513303E-02
     4.290020698533461        0.5469803186015681E-02
     4.299266432797541        0.5295915797319198E-02
     4.308512167061622        0.5123312185454649E-02
     4.317757901325702        0.4951968085627250E-02
     4.327003635589783        0.4781859470253245E-02
     4.336249369853864        0.4612962545051689E-02
     4.345495104117945        0.4445253745178704E-02
     4.354740838382026        0.4278709731408154E-02
     4.363986572646106        0.4113307386356149E-02
     4.373232306910187        0.3949023810754435E-02
     4.382478041174267        0.3785836319758016E-02
     4.391723775438348        0.3623722439304642E-02
     4.400969509702429        0.3462659902512105E-02
     4.410215243966510        0.3302626646117801E-02
     4.419460978230591        0.3143600806945252E-02
     4.428706712494671        0.2985560718483146E-02
     4.437952446758752        0.2828484907356041E-02
     4.447198181022832        0.2672352089980501E-02
     4.456443915286913        0.2517141169189107E-02
     4.465689649550995        0.2362831230905417E-02
     4.474935383815075        0.2209401540406390E-02
     4.484181118079156        0.2056831540945546E-02
     4.493426852343236        0.1905100847725804E-02
     4.502672586607317        0.1754189246490922E-02
     4.511918320871398        0.1604076689969150E-02
     4.521164055135478        0.1454743294763924E-02
     4.530409789399560        0.1306169325083642E-02
     4.539655523663640        0.1158335243582516E-02
     4.548901257927721        0.1011221629897659E-02
     4.558146992191801        0.8648092259577096E-03
     4.567392726455882        0.7190789217045383E-03
     4.576638460719963        0.5740117518818825E-03
     4.585884194984044        0.4295881077635303E-03
     4.595129929248125        0.2857908111072854E-03
     4.604375663512205        0.1426008625501465E-03
     4.613621397776286         0.000000000000000    
  0  2  2  0  0.000000   #orbital l, n, z, is_polarized, population
 500    0.5895083297743879E-02     2.941646565574195     # npts, delta, cutoff
     0.000000000000000        0.7378880146659602    
    0.5895083297743879E-02    0.7379888613296929    
    0.1179016659548776E-01    0.7383026526537159    
    0.1768524989323163E-01    0.7388253637548571    
    0.2358033319097552E-01    0.7395565795330082    
    0.2947541648871940E-01    0.7404957199597753    
    0.3537049978646327E-01    0.7416420398592213    
    0.4126558308420715E-01    0.7429946291730362    
    0.4716066638195103E-01    0.7445524133551735    
    0.5305574967969491E-01    0.7463141538588891    
    0.5895083297743879E-01    0.7482784487112613    
    0.6484591627518267E-01    0.7504437331764399    