<preamble>

<basis_specs>
===============================================================================
O                    Z=   8    Mass=  16.000        Charge= 0.17977+309
Lmxo=2 Lmxkb= 2    BasisType=split      Semic=F
L=0  Nsemic=0  Cnfigmx=2
          n=1  nzeta=2  polorb=0  (2s)
            splnorm:   0.15000    
               vcte:    0.0000    
               rinn:    0.0000    
               qcoe:    0.0000    
               qyuk:    0.0000    
               qwid:   0.10000E-01
                rcs:    4.1391      2.5420    
            lambdas:    1.0000      1.0000    
L=1  Nsemic=0  Cnfigmx=2
          n=1  nzeta=2  polorb=1  (2p)  (to be polarized perturbatively)
            splnorm:   0.15000    
               vcte:    0.0000    
               rinn:    0.0000    
               qcoe:    0.0000    
               qyuk:    0.0000    
               qwid:   0.10000E-01
                rcs:    5.3148      2.7059    
            lambdas:    1.0000      1.0000    
L=2  Nsemic=0  Cnfigmx=3
          n=1  nzeta=0  polorb=0  (3d)  (perturbative polarization orbital)
-------------------------------------------------------------------------------
L=0  Nkbl=1  erefs: 0.17977+309
L=1  Nkbl=1  erefs: 0.17977+309
L=2  Nkbl=1  erefs: 0.17977+309
===============================================================================
</basis_specs>

<pseudopotential_header>
 O  pb rel pcec
 ONCVPSP-3.2018-05-06Hamann's oncvpsp                        
 2s 2.00r r= 1.26/2p 4.00r r= 1.36/3d 0.00r r= 1.26/                   
</pseudopotential_header>
</preamble>
O                             # Symbol
O                             # Label
    8                         # Atomic number
     6.00000000000                             # Valence charge
     16.0000000000        # Mass 
     48.2563386191        # Self energy 
   2   5                      # Lmax for basis, no. of nl orbitals 
   2   6                      # Lmax for projectors, no. of nl KB projectors
# PAOs:__________________________
  0  2  1  0  2.000000   #orbital l, n, z, is_polarized, population
 500    0.8294832967564040E-02     4.139121650814456     # npts, delta, cutoff
     0.000000000000000         1.277987407667255    
    0.8294832967564040E-02     1.278038977091460    
    0.1658966593512808E-01     1.278208289135255    
    0.2488449890269212E-01     1.278489994401542    
    0.3317933187025616E-01     1.278883368100460    
    0.4147416483782020E-01     1.279387396838890    
    0.4976899780538424E-01     1.280000778873855    
    0.5806383077294828E-01     1.280721924905147    
    0.6635866374051232E-01     1.281548959137846    
    0.7465349670807636E-01     1.282479720605831    
    0.8294832967564039E-01     1.283511764776508    
    0.9124316264320444E-01     1.284642365464537    
    0.9953799561076848E-01     1.285868517086126    
    0.1078328285783325         1.287186937287785    
    0.1161276615458966         1.288594069985076    
    0.1244224945134606         1.290086088847932    
    0.1327173274810246         1.291658901269433    
    0.1410121604485887         1.293308152854718    
    0.1493069934161527         1.295029232465889    
    0.1576018263837168         1.296817277857230    
    0.1658966593512808         1.298667181933053    
    0.1741914923188448         1.300573599657768    
    0.1824863252864089         1.302530955644599    
    0.1907811582539729         1.304533452445457    
    0.1990759912215370         1.306575079560402    
    0.2073708241891010         1.308649623180125    
    0.2156656571566650         1.310750676669896    
    0.2239604901242291         1.312871651797847    
    0.2322553230917931         1.315005790704477    
    0.2405501560593571         1.317146178604405    
    0.2488449890269212         1.319285757204943    
    0.2571398219944852         1.321417338819715    
    0.2654346549620493         1.323533621149265    
    0.2737294879296133         1.325627202693955    
    0.2820243208971773         1.327690598758424    
    0.2903191538647414         1.329716258000589    
    0.2986139868323054         1.331696579472387    
    0.3069088197998694         1.333623930093864    
    0.3152036527674335         1.335490662497100    
    0.3234984857349976         1.337289133171538    
    0.3317933187025616         1.339011720838340    
    0.3400881516701256         1.340650844977361    
    0.3483829846376897         1.342198984427527    
    0.3566778176052537         1.343648695978595    
    0.3649726505728177         1.344992632870882    
    0.3732674835403818         1.346223563117929    
    0.3815623165079458         1.347334387567191    
    0.3898571494755099         1.348318157613644    
    0.3981519824430739         1.349168092482617    
    0.4064468154106379         1.349877595999739    
    0.4147416483782020         1.350440272768336    
    0.4230364813457660         1.350849943677866    
    0.4313313143133300         1.351100660670732    
    0.4396261472808941         1.351186720699180    
    0.4479209802484581         1.351102678809227    
    0.4562158132160222         1.350843360293888    
    0.4645106461835862         1.350403871864218    
    0.4728054791511502         1.349779611792997    
    0.4811003121187143         1.348966278993018    
    0.4893951450862783         1.347959880998619    
    0.4976899780538424         1.346756740827177    
    0.5059848110214065         1.345353502704007    
    0.5142796439889704         1.343747136642442    
    0.5225744769565345         1.341934941878147    
    0.5308693099240985         1.339914549164406    
    0.5391641428916626         1.337683921942412    
    0.5474589758592266         1.335241356408132    
    0.5557538088267906         1.332585480503963    
    0.5640486417943547         1.329715251870067    
    0.5723434747619187         1.326629954796749    
    0.5806383077294828         1.323329196224426    
    0.5889331406970468         1.319812900843595    
    0.5972279736646109         1.316081305351404    
    0.6055228066321748         1.312134951925523    
    0.6138176395997389         1.307974680979893    
    0.6221124725673030         1.303601623268989    
    0.6304073055348670         1.299017191409842    
    0.6387021385024311         1.294223070892387    
    0.6469969714699951         1.289221210649167    
    0.6552918044375591         1.284013813255647    
    0.6635866374051231         1.278603324831736    
    0.6718814703726872         1.272992424713691    
    0.6801763033402513         1.267184014963661    
    0.6884711363078153         1.261181209781618    
    0.6967659692753794         1.254987324881281    
    0.7050608022429433         1.248605866887974    
    0.7133556352105074         1.242040522804257    
    0.7216504681780714         1.235295149713835    
    0.7299453011456355         1.228373763919237    
    0.7382401341131996         1.221280533284892    
    0.7465349670807636         1.214019770233067    
    0.7548298000483276         1.206595904077060    
    0.7631246330158916         1.199013493229634    
    0.7714194659834557         1.191277208244082    
    0.7797142989510197         1.183391823238302    
    0.7880091319185838         1.175362207892162    
    0.7963039648861479         1.167193319449249    
    0.8045987978537118         1.158890195127205    
    0.8128936308212759         1.150457944834696    
    0.8211884637888399         1.141901744189401    
    0.8294832967564040         1.133226827818962    
    0.8377781297239680         1.124438482923115    
    0.8460729626915320         1.115542043071968    
    0.8543677956590960         1.106542882212797    
    0.8626626286266601         1.097446408855394    
    0.8709574615942242         1.088258060404473    
    0.8792522945617882         1.078983297606560    
    0.8875471275293523         1.069627599078154    
    0.8958419604969162         1.060196455882243    
    0.9041367934644803         1.050695366120617    
    0.9124316264320443         1.041129829510795    
    0.9207264593996084         1.031505341917813    
    0.9290212923671725         1.021827389813619    
    0.9373161253347365         1.012101444639185    
    0.9456109583023005         1.002332957047525    
    0.9539057912698645        0.9925273510094573    
    0.9622006242374286        0.9826900177674577    
    0.9704954572049926        0.9728263096271678    
    0.9787902901725567        0.9629415335802741    
    0.9870851231401208        0.9530409447570491    
    0.9953799561076847        0.9431297397112638    
     1.003674789075249        0.9332130495448958    
     1.011969622042813        0.9232959328845615    
     1.020264455010377        0.9133833687260751    
     1.028559287977941        0.9034802491682574    
     1.036854120945505        0.8935913720608317    
     1.045148953913069        0.8837214335954646    
     1.053443786880633        0.8738750208730725    
     1.061738619848197        0.8640566044829584    
     1.070033452815761        0.8542705311329720    
     1.078328285783325        0.8445210163728200    
     1.086623118750889        0.8348121374530632    
     1.094917951718453        0.8251478263665007    
     1.103212784686017        0.8155318631171271    
     1.111507617653581        0.8059678692639215    
     1.119802450621145        0.7964593017873893    
     1.128097283588709        0.7870094473235982    
     1.136392116556273        0.7776214168132881    
     1.144686949523837        0.7682981406082618    
     1.152981782491401        0.7590423640777353    
     1.161276615458966        0.7498566437547423    
     1.169571448426530        0.7407433440568287    
     1.177866281394094        0.7317046346169392    
     1.186161114361658        0.7227424882509206    
     1.194455947329222        0.7138586795898837    
     1.202750780296786        0.7050547843866671    
     1.211045613264350        0.6963321795924096    
     1.219340446231914        0.6876920437579566    
     1.227635279199478        0.6791353594187155    
     1.235930112167042        0.6706629129879853    
     1.244224945134606        0.6622753007209836    
     1.252519778102170        0.6539729350268280    
     1.260814611069734        0.6457560311983135    
     1.269109444037298        0.6376246388397288    
     1.277404277004862        0.6295787003255156    
     1.285699109972426        0.6216180812862168    
     1.293993942939990        0.6137426149896263    
     1.302288775907554        0.6059521105688584    
     1.310583608875118        0.5982463262967471    
     1.318878441842682        0.5906249890597164    
     1.327173274810246        0.5830877928390608    
     1.335468107777810        0.5756344008483224    
     1.343762940745374        0.5682644472980709    
     1.352057773712938        0.5609775392357472    
     1.360352606680503        0.5537732582685003    
     1.368647439648067        0.5466511621079448    
     1.376942272615631        0.5396107861179812    
     1.385237105583195        0.5326516447863686    
     1.393531938550759        0.5257732332422660    
     1.401826771518323        0.5189750285620985    
     1.410121604485887        0.5122564909294298    
     1.418416437453451        0.5056170648865781    
     1.426711270421015        0.4990561806010262    
     1.435006103388579        0.4925732549483336    
     1.443300936356143        0.4861676925151370    
     1.451595769323707        0.4798388866172841    
     1.459890602291271        0.4735862202420412    
     1.468185435258835        0.4674090669429354    
     1.476480268226399        0.4613067917366372    
     1.484775101193963        0.4552787519312043    
     1.493069934161527        0.4493242978811749    
     1.501364767129091        0.4434427737335103    
     1.509659600096655        0.4376335181263589    
     1.517954433064219        0.4318958648744938    
     1.526249266031783        0.4262291436006000    
     1.534544098999347        0.4206326803339261    
     1.542838931966911        0.4151057980846598    
     1.551133764934475        0.4096478173885673    
     1.559428597902039        0.4042580568213686    
     1.567723430869604        0.3989358334871256    
     1.576018263837168        0.3936804634802686    
     1.584313096804732        0.3884912623235626    
     1.592607929772296        0.3833675453824143    
     1.600902762739860        0.3783086282567130    
     1.609197595707424        0.3733138271513338    
     1.617492428674988        0.3683824592261783    
     1.625787261642552        0.3635138429262865    
     1.634082094610116        0.3587072982940668    
     1.642376927577680        0.3539621472643431    
     1.650671760545244        0.3492777139377010    
     1.658966593512808        0.3446533248432754    
     1.667261426480372        0.3400883091816176    
     1.675556259447936        0.3355819990616150    
     1.683851092415500        0.3311337297181295    
     1.692145925383064        0.3267428397028504    
     1.700440758350628        0.3224086710797585    
     1.708735591318192        0.3181305695983033    
     1.717030424285756        0.3139078848704069    
     1.725325257253320        0.3097399705223126    
     1.733620090220884        0.3056261843354483    
     1.741914923188448        0.3015658883814802    
     1.750209756156012        0.2975584491478256    
     1.758504589123576        0.2936032376492452    
     1.766799422091140        0.2896996295308903    
     1.775094255058705        0.2858470051770496    
     1.783389088026269        0.2820447497969039    
     1.791683920993832        0.2782922535145005    
     1.799978753961397        0.2745889114310416    
     1.808273586928961        0.2709341236997780    
     1.816568419896525        0.2673272955826524    
     1.824863252864089        0.2637678375159589    
     1.833158085831653        0.2602551651553180    
     1.841452918799217        0.2567886994230335    
     1.849747751766781        0.2533678665428044    
     1.858042584734345        0.2499920980753130    
     1.866337417701909        0.2466608309489607    
     1.874632250669473        0.2433735074837388    
     1.882927083637037        0.2401295754122311    
     1.891221916604601        0.2369284878954050    
     1.899516749572165        0.2337697035354173    
     1.907811582539729        0.2306526863842754    
     1.916106415507293        0.2275769059493636    
     1.924401248474857        0.2245418371953942    
     1.932696081442421        0.2215469605433473    
     1.940990914409985        0.2185917618664676    
     1.949285747377549        0.2156757324834489    
     1.957580580345113        0.2127983691489731    
     1.965875413312677        0.2099591740418217    
     1.974170246280242        0.2071576547505810    
     1.982465079247805        0.2043933242571449    
     1.990759912215369        0.2016657009181839    
     1.999054745182933        0.1989743084445985    
     2.007349578150498        0.1963186758791346    
     2.015644411118062        0.1936983375723168    
     2.023939244085626        0.1911128331566993    
     2.032234077053189        0.1885617075196007    
     2.040528910020754        0.1860445107744566    
     2.048823742988318        0.1835607982307860    
     2.057118575955882        0.1811101303629126    
     2.065413408923446        0.1786920727775723    
     2.073708241891010        0.1763061961803835    
     2.082003074858574        0.1739520763413133    
     2.090297907826138        0.1716292940592565    
     2.098592740793702        0.1693374351256980    
     2.106887573761266        0.1670760902875764    
     2.115182406728830        0.1648448552094578    
     2.123477239696394        0.1626433304349841    
     2.131772072663958        0.1604711213476977    
     2.140066905631522        0.1583278381313482    
     2.148361738599086        0.1562130957296365    
     2.156656571566650        0.1541265138054905    
     2.164951404534214        0.1520677166999650    
     2.173246237501778        0.1500363333907212    
     2.181541070469343        0.1480319974501915    
     2.189835903436907        0.1460543470034307    
     2.198130736404471        0.1441030246857538    
     2.206425569372035        0.1421776776001100    
     2.214720402339599        0.1402779572742731    
     2.223015235307162        0.1384035196179191    
     2.231310068274726        0.1365540248795383    
     2.239604901242291        0.1347291376032558    
     2.247899734209855        0.1329285265856240    
     2.256194567177419        0.1311518648323353    
     2.264489400144983        0.1293988295149398    
     2.272784233112547        0.1276691019275516    
     2.281079066080111        0.1259623674436270    
     2.289373899047675        0.1242783154727542    
     2.297668732015239        0.1226166394175186    
     2.305963564982803        0.1209770366304942    
     2.314258397950367        0.1193592083713046    
     2.322553230917931        0.1177628597638291    
     2.330848063885495        0.1161876997535337    
     2.339142896853059        0.1146334410649915    
     2.347437729820623        0.1130998001595409    
     2.355732562788187        0.1115864971931270    
     2.364027395755751        0.1100932559743735    
     2.372322228723315        0.1086198039228256    
     2.380617061690879        0.1071658720274306    
     2.388911894658444        0.1057311948052306    
     2.397206727626008        0.1043155102603269    
     2.405501560593572        0.1029185598430598    
     2.413796393561135        0.1015400884094463    
     2.422091226528699        0.1001798441809115    
     2.430386059496263        0.9883757870425976E-01
     2.438680892463827        0.9751304681194008E-01
     2.446975725431392        0.9620600658258030E-01
     2.455270558398956        0.9491621930184220E-01
     2.463565391366520        0.9364344942354103E-01
     2.471860224334084        0.9238746453108244E-01
     2.480155057301648        0.9114803529919098E-01
     2.488449890269212        0.8992493545597451E-01
     2.496744723236776        0.8871794174527582E-01
     2.505039556204340        0.8752683388934314E-01
     2.513334389171904        0.8635139455184304E-01
     2.521629222139468        0.8519140930117217E-01
     2.529924055107032        0.8404666657410749E-01
     2.538218888074596        0.8291695763976772E-01
     2.546513721042160        0.8180207656393580E-01
     2.554808554009724        0.8070182017368130E-01
     2.563103386977288        0.7961598802233079E-01
     2.571398219944852        0.7854438235476392E-01
     2.579693052912416        0.7748680807305644E-01
     2.587987885879981        0.7644307270244692E-01
     2.596282718847545        0.7541298635764776E-01
     2.604577551815109        0.7439636170947647E-01
     2.612872384782672        0.7339301395185917E-01
     2.621167217750236        0.7240276076913373E-01
     2.629462050717800        0.7142542230370857E-01
     2.637756883685364        0.7046082112404932E-01
     2.646051716652928        0.6950878219301156E-01
     2.654346549620493        0.6856913283649849E-01
     2.662641382588057        0.6764170271245983E-01
     2.670936215555621        0.6672632378021343E-01
     2.679231048523185        0.6582283027012233E-01
     2.687525881490749        0.6493105865357980E-01
     2.695820714458313        0.6405084761333731E-01
     2.704115547425877        0.6318203801415198E-01
     2.712410380393441        0.6232447287377878E-01
     2.720705213361005        0.6147799733427093E-01
     2.729000046328569        0.6064245863361512E-01
     2.737294879296133        0.5981770607768020E-01
     2.745589712263697        0.5900359101250369E-01
     2.753884545231261        0.5819996679688067E-01
     2.762179378198825        0.5740668877527957E-01
     2.770474211166389        0.5662361425106460E-01
     2.778769044133953        0.5585060246004765E-01
     2.787063877101517        0.5508751454433536E-01
     2.795358710069082        0.5433421352649476E-01
     2.803653543036645        0.5359056428401713E-01
     2.811948376004209        0.5285643352410197E-01
     2.820243208971773        0.5213168975872915E-01
     2.828538041939337        0.5141620328003890E-01
     2.836832874906901        0.5070984613600276E-01
     2.845127707874465        0.5001249210640286E-01
     2.853422540842030        0.4932401667909216E-01
     2.861717373809594        0.4864429702655124E-01
     2.870012206777158        0.4797321198273333E-01
     2.878307039744722        0.4731064202018969E-01
     2.886601872712286        0.4665646922749114E-01
     2.894896705679850        0.4601057728691713E-01
     2.903191538647414        0.4537285145243079E-01
     2.911486371614978        0.4474317852792285E-01
     2.919781204582542        0.4412144684574097E-01
     2.928076037550106        0.4350754624547738E-01
     2.936370870517670        0.4290136805303169E-01
     2.944665703485234        0.4230280505993282E-01
     2.952960536452798        0.4171175150293404E-01
     2.961255369420362        0.4112810304385864E-01
     2.969550202387926        0.4055175674970750E-01
     2.977845035355490        0.3998261107302198E-01
     2.986139868323054        0.3942056583249445E-01
     2.994434701290618        0.3886552219383874E-01
     3.002729534258182        0.3831738265089735E-01
     3.011024367225746        0.3777605100699937E-01
     3.019319200193310        0.3724143235655494E-01
     3.027614033160874        0.3671343306689760E-01
     3.035908866128438        0.3619196076035543E-01
     3.044203699096002        0.3567692429655976E-01
     3.052498532063566        0.3516823375498580E-01
     3.060793365031131        0.3466580041771834E-01
     3.069088197998695        0.3416953675245184E-01
     3.077383030966259        0.3367935639570635E-01
     3.085677863933823        0.3319517413626939E-01
     3.093972696901387        0.3271690589885233E-01
     3.102267529868951        0.3224446872796983E-01
     3.110562362836515        0.3177778077202660E-01
     3.118857195804079        0.3131676126761828E-01
     3.127152028771643        0.3086133052404101E-01
     3.135446861739207        0.3041140990800455E-01
     3.143741694706771        0.2996692182855485E-01
     3.152036527674335        0.2952778972219236E-01
     3.160331360641899        0.2909393803819193E-01
     3.168626193609463        0.2866529222411906E-01
     3.176921026577027        0.2824177871153795E-01
     3.185215859544591        0.2782332490191625E-01
     3.193510692512155        0.2740985915271409E-01
     3.201805525479719        0.2700131076366249E-01
     3.210100358447283        0.2659760996322639E-01
     3.218395191414847        0.2619868789524830E-01
     3.226690024382411        0.2580447660577549E-01
     3.234984857349975        0.2541490903006138E-01
     3.243279690317539        0.2502991897974426E-01
     3.251574523285103        0.2464944113019904E-01
     3.259869356252667        0.2427341100805892E-01
     3.268164189220232        0.2390176497890849E-01
     3.276459022187796        0.2353444023514083E-01
     3.284753855155360        0.2317137478398045E-01
     3.293048688122924        0.2281250743566778E-01
     3.301343521090488        0.2245777779180510E-01
     3.309638354058052        0.2210712623385939E-01
     3.317933187025616        0.2176049391182179E-01
     3.326228019993180        0.2141782273302086E-01
     3.334522852960744        0.2107905535108764E-01
     3.342817685928308        0.2074413515507094E-01
     3.351112518895872        0.2041300625870015E-01
     3.359407351863436        0.2008561348979413E-01
     3.367702184831000        0.1976190237981386E-01
     3.375997017798564        0.1944181915355740E-01
     3.384291850766128        0.1912531071899434E-01
     3.392586683733692        0.1881232465723881E-01
     3.400881516701256        0.1850280921265871E-01
     3.409176349668820        0.1819671328311909E-01
     3.417471182636384        0.1789398641035810E-01
     3.425766015603948        0.1759457877049446E-01
     3.434060848571512        0.1729844116466182E-01
     3.442355681539076        0.1700552500977235E-01
     3.450650514506640        0.1671578232940455E-01
     3.458945347474204        0.1642916574481470E-01
     3.467240180441769        0.1614562846607129E-01
     3.475535013409333        0.1586512428330706E-01
     3.483829846376897        0.1558760755809209E-01
     3.492124679344461        0.1531303321492240E-01
     3.500419512312025        0.1504135673282345E-01
     3.508714345279589        0.1477253413706923E-01
     3.517009178247153        0.1450652199100899E-01
     3.525304011214717        0.1424327738800837E-01
     3.533598844182281        0.1398275794349726E-01
     3.541893677149845        0.1372492178712466E-01
     3.550188510117409        0.1346972755502168E-01
     3.558483343084973        0.1321713438216336E-01
     3.566778176052537        0.1296710189483815E-01
     3.575073009020101        0.1271959020321612E-01
     3.583367841987665        0.1247455989401701E-01
     3.591662674955229        0.1223197202327617E-01
     3.599957507922793        0.1199178810920986E-01
     3.608252340890357        0.1175397012516982E-01
     3.616547173857921        0.1151848049269790E-01
     3.624842006825485        0.1128528207467024E-01
     3.633136839793049        0.1105433816853234E-01
     3.641431672760613        0.1082561249962774E-01
     3.649726505728177        0.1059906921460741E-01
     3.658021338695741        0.1037467287493394E-01
     3.666316171663305        0.1015238845046792E-01
     3.674611004630870        0.9932181313139497E-02
     3.682905837598434        0.9714017230702580E-02
     3.691200670565998        0.9497862360574958E-02
     3.699495503533562        0.9283683243750888E-02
     3.707790336501126        0.9071446798801813E-02
     3.716085169468690        0.8861120315951203E-02
     3.724380002436254        0.8652671451226500E-02
     3.732674835403818        0.8446068220691921E-02
     3.740969668371382        0.8241278994746196E-02
     3.749264501338946        0.8038272492503766E-02
     3.757559334306510        0.7837017776243953E-02
     3.765854167274074        0.7637484245932399E-02
     3.774149000241638        0.7439641633811919E-02
     3.782443833209202        0.7243459999067864E-02
     3.790738666176766        0.7048909722550779E-02
     3.799033499144330        0.6855961501577156E-02
     3.807328332111894        0.6664586344790978E-02
     3.815623165079458        0.6474755567091314E-02
     3.823917998047022        0.6286440784622978E-02
     3.832212831014586        0.6099613909835663E-02
     3.840507663982150        0.5914247146593578E-02
     3.848802496949714        0.5730312985358002E-02
     3.857097329917278        0.5547784198424071E-02
     3.865392162884842        0.5366633835216589E-02
     3.873686995852407        0.5186835217650564E-02
     3.881981828819971        0.5008361935535878E-02
     3.890276661787535        0.4831187842051158E-02
     3.898571494755099        0.4655287049267048E-02
     3.906866327722663        0.4480633923725166E-02
     3.915161160690227        0.4307203082069406E-02
     3.923455993657791        0.4134969386736991E-02
     3.931750826625355        0.3963907941687393E-02
     3.940045659592919        0.3793994088196257E-02
     3.948340492560483        0.3625203400692956E-02
     3.956635325528047        0.3457511682648838E-02
     3.964930158495611        0.3290894962495937E-02
     3.973224991463175        0.3125329489688332E-02
     3.981519824430739        0.2960791730617033E-02
     3.989814657398303        0.2797258364762887E-02
     3.998109490365867        0.2634706280802915E-02
     4.006404323333431        0.2473112572778857E-02
     4.014699156300995        0.2312454535757214E-02
     4.022993989268559        0.2152709664388738E-02
     4.031288822236124        0.1993855645752138E-02
     4.039583655203687        0.1835870357871615E-02
     4.047878488171252        0.1678731865593558E-02
     4.056173321138815        0.1522418417011335E-02
     4.064468154106379        0.1366908424246227E-02
     4.072762987073943        0.1212180523999386E-02
     4.081057820041507        0.1058213480842501E-02
     4.089352653009072        0.9049862411936193E-03
     4.097647485976635        0.7524779164660777E-03
     4.105942318944200        0.6006677793717120E-03
     4.114237151911763        0.4495343565357119E-03
     4.122531984879328        0.2990589669451674E-03
     4.130826817846891        0.1492208279018575E-03
     4.139121650814456         0.000000000000000    
  0  2  2  0  0.000000   #orbital l, n, z, is_polarized, population
 500    0.5094114008984710E-02     2.541962890483370     # npts, delta, cutoff
     0.000000000000000         1.472780951387896    
    0.5094114008984710E-02     1.472805187950167    
    0.1018822801796942E-01     1.472898843312292    
    0.1528234202695413E-01     1.473054841386230    
    0.2037645603593884E-01     1.473273034212095    
    0.2547057004492355E-01     1.473553216298453    
    0.3056468405390826E-01     1.473895123777146    
    0.3565879806289297E-01     1.474298434337139    
    0.4075291207187768E-01     1.474762767268716    
    0.4584702608086239E-01     1.475287683544457    
    0.5094114008984710E-01     1.475872685922893    