<preamble>

<basis_specs>
===============================================================================
P                    Z=  15    Mass=  30.970        Charge= 0.17977+309
Lmxo=2 Lmxkb= 2    BasisType=split      Semic=F
L=0  Nsemic=0  Cnfigmx=3
          n=1  nzeta=2  polorb=0  (3s)
            splnorm:   0.15000    
               vcte:    0.0000    
               rinn:    0.0000    
               qcoe:    0.0000    
               qyuk:    0.0000    
               qwid:   0.10000E-01
                rcs:    5.7083      3.9725    
            lambdas:    1.0000      1.0000    
L=1  Nsemic=0  Cnfigmx=3
          n=1  nzeta=2  polorb=1  (3p)  (to be polarized perturbatively)
            splnorm:   0.15000    
               vcte:    0.0000    
               rinn:    0.0000    
               qcoe:    0.0000    
               qyuk:    0.0000    
               qwid:   0.10000E-01
                rcs:    7.3296      4.6155    
            lambdas:    1.0000      1.0000    
L=2  Nsemic=0  Cnfigmx=3
          n=1  nzeta=0  polorb=0  (3d)  (perturbative polarization orbital)
-------------------------------------------------------------------------------
L=0  Nkbl=1  erefs: 0.17977+309
L=1  Nkbl=1  erefs: 0.17977+309
L=2  Nkbl=1  erefs: 0.17977+309
===============================================================================
</basis_specs>

<pseudopotential_header>
 P  pb rel pcec
 ONCVPSP-3.2018-04-23Hamann's oncvpsp                        
 3s 2.00r r= 1.46/3p 3.00r r= 1.55/3d 0.00r r= 1.71/                   
</pseudopotential_header>
</preamble>
P                             # Symbol
P                             # Label
   15                         # Atomic number
     5.00000000000                             # Valence charge
     30.9700000000        # Mass 
     26.5868162423        # Self energy 
   2   5                      # Lmax for basis, no. of nl orbitals 
   2   7                      # Lmax for projectors, no. of nl KB projectors
# PAOs:__________________________
  0  3  1  0  2.000000   #orbital l, n, z, is_polarized, population
 500    0.1143947431530047E-01     5.708297683334933     # npts, delta, cutoff
     0.000000000000000        0.9147851526966087E-01
    0.1143947431530047E-01    0.9160176601759752E-01
    0.2287894863060094E-01    0.9197194867888321E-01
    0.3431842294590140E-01    0.9258878779472605E-01
    0.4575789726120187E-01    0.9345207783805214E-01
    0.5719737157650234E-01    0.9456151623847436E-01
    0.6863684589180280E-01    0.9591668896121192E-01
    0.8007632020710327E-01    0.9751705256704615E-01
    0.9151579452240374E-01    0.9936191317829110E-01
    0.1029552688377042        0.1014504028541697    
    0.1143947431530047        0.1037814539432991    
    0.1258342174683051        0.1063537720323513    
    0.1372736917836056        0.1091658081474382    
    0.1487131660989061        0.1122157308876024    
    0.1601526404142065        0.1155013991774556    
    0.1715921147295070        0.1190203363183778    
    0.1830315890448075        0.1227697059949442    
    0.1944710633601079        0.1267462908559117    
    0.2059105376754084        0.1309464742380519    
    0.2173500119907089        0.1353662255375001    
    0.2287894863060094        0.1400010896585671    
    0.2402289606213098        0.1448461808858127    
    0.2516684349366103        0.1498961814335082    
    0.2631079092519107        0.1551453448294923    
    0.2745473835672112        0.1605875041900158    
    0.2859868578825117        0.1662160853407417    
    0.2974263321978122        0.1720241246388677    
    0.3088658065131126        0.1780042912546145    
    0.3203052808284131        0.1841489135792035    
    0.3317447551437135        0.1904500093429356    
    0.3431842294590141        0.1968993189529668    
    0.3546237037743145        0.2034883414973323    
    0.3660631780896150        0.2102083728112603    
    0.3775026524049154        0.2170505449646492    
    0.3889421267202159        0.2240058665067853    
    0.4003816010355164        0.2310652627961280    
    0.4118210753508169        0.2382196157496033    
    0.4232605496661173        0.2454598023669306    
    0.4347000239814178        0.2527767314205672    
    0.4461394982967182        0.2601613777499981    
    0.4575789726120187        0.2676048136591726    
    0.4690184469273192        0.2750982369863654    
    0.4804579212426197        0.2826329954951018    
    0.4918973955579201        0.2902006073210439    
    0.5033368698732206        0.2977927773008679    
    0.5147763441885210        0.3054014091032959    
    0.5262158185038215        0.3130186131769661    
    0.5376552928191219        0.3206367106231159    
    0.5490947671344224        0.3282482331905131    
    0.5605342414497230        0.3358459196739810    
    0.5719737157650234        0.3434227090741949    
    0.5834131900803239        0.3509717309435883    
    0.5948526643956243        0.3584862933995449    
    0.6062921387109248        0.3659598693306007    
    0.6177316130262253        0.3733860813529615    
    0.6291710873415257        0.3807586860927149    
    0.6406105616568262        0.3880715583734605    
    0.6520500359721266        0.3953186758794636    
    0.6634895102874271        0.4024941048413933    
    0.6749289846027277        0.4095919872558129    
    0.6863684589180281        0.4166065301016090    
    0.6978079332333286        0.4235319969580109    
    0.7092474075486290        0.4303627023607675    
    0.7206868818639295        0.4370930091575824    
    0.7321263561792299        0.4437173290422771    
    0.7435658304945304        0.4502301263619410    
    0.7550053048098309        0.4566259252039852    
    0.7664447791251313        0.4628993196830711    
    0.7778842534404318        0.4690449872630141    
    0.7893237277557322        0.4750577048682332    
    0.8007632020710328        0.4809323674648643    
    0.8122026763863333        0.4866640087249940    
    0.8236421507016337        0.4922478233302140    
    0.8350816250169342        0.4976791904241932    
    0.8465210993322346        0.5029536976890623    
    0.8579605736475351        0.5080671654982147    
    0.8694000479628355        0.5130156705888317    
    0.8808395222781360        0.5177955687014433    
    0.8922789965934365        0.5224035156508441    
    0.9037184709087369        0.5268364863225512    
    0.9151579452240375        0.5310917911305137    
    0.9265974195393379        0.5351670895245342    
    0.9380368938546384        0.5390604001982804    
    0.9494763681699389        0.5427701077193645    
    0.9609158424852393        0.5462949653801994    
    0.9723553168005398        0.5496340941505179    
    0.9837947911158402        0.5527869776974301    
    0.9952342654311407        0.5557534535248353    
     1.006673739746441        0.5585337003690546    
     1.018113214061742        0.5611282220694833    
     1.029552688377042        0.5635378282103496    
     1.040992162692343        0.5657636119002504    
     1.052431637007643        0.5678069251184780    
     1.063871111322944        0.5696693521101490    
     1.075310585638244        0.5713526813542108    
     1.086750059953544        0.5728588766583937    
     1.098189534268845        0.5741900479544507    
     1.109629008584145        0.5753484223703299    
     1.121068482899446        0.5763363161503888    
     1.132507957214746        0.5771561079735008    
     1.143947431530047        0.5778102141870535    
     1.155386905845347        0.5783010664309078    
     1.166826380160648        0.5786310920726265    
     1.178265854475948        0.5788026978101432    
     1.189705328791249        0.5788182567295922    
     1.201144803106549        0.5786800990280296    
     1.212584277421850        0.5783905065303904    
     1.224023751737150        0.5779517110459678    
     1.235463226052451        0.5773658965264649    
     1.246902700367751        0.5766352049042084    
     1.258342174683051        0.5757617454107123    
     1.269781648998352        0.5747476070976676    
     1.281221123313652        0.5735948742192992    
     1.292660597628953        0.5723056440714920    
     1.304100071944253        0.5708820468291325    
     1.315539546259554        0.5693262668903647    
     1.326979020574854        0.5676405651988407    
     1.338418494890155        0.5658273020033715    
     1.349857969205455        0.5638889594785435    
     1.361297443520756        0.5618281638390347    
     1.372736917836056        0.5596477058197296    
     1.384176392151357        0.5573505599678718    
     1.395615866466657        0.5549399033090466    
     1.407055340781957        0.5524191267838283    
     1.418494815097258        0.5497918461827469    
     1.429934289412558        0.5470619165376785    
     1.441373763727859        0.5442334297856282    
     1.452813238043159        0.5413107111338796    
     1.464252712358460        0.5382983618320715    
     1.475692186673760        0.5352011155137590    
     1.487131660989061        0.5320237040983365    
     1.498571135304361        0.5287707125617169    
     1.510010609619662        0.5254465351173337    
     1.521450083934962        0.5220554375719403    
     1.532889558250263        0.5186015332069661    
     1.544329032565563        0.5150887929922309    
     1.555768506880864        0.5115210489180516    
     1.567207981196164        0.5079019983334938    
     1.578647455511464        0.5042352073827713    
     1.590086929826765        0.5005241151544552    
     1.601526404142066        0.4967720374482216    
     1.612965878457366        0.4929821701416388    
     1.624405352772667        0.4891575927151876    
     1.635844827087967        0.4853012718324071    
     1.647284301403267        0.4814160646519134    
     1.658723775718568        0.4775047220640454    
     1.670163250033868        0.4735698918106591    
     1.681602724349169        0.4696141215338682    
     1.693042198664469        0.4656398618538428    
     1.704481672979770        0.4616494693016358    
     1.715921147295070        0.4576452091064932    
     1.727360621610371        0.4536292579679372    
     1.738800095925671        0.4496037067782969    
     1.750239570240972        0.4455705632421869    
     1.761679044556272        0.4415317544237052    
     1.773118518871573        0.4374891292388131    
     1.784557993186873        0.4334444608815824    
     1.795997467502173        0.4293994491832995    
     1.807436941817474        0.4253557229102007    
     1.818876416132774        0.4213148420014016    
     1.830315890448075        0.4172782997475415    
     1.841755364763375        0.4132475249115752    
     1.853194839078676        0.4092238837932842    
     1.864634313393976        0.4052086822387470    
     1.876073787709277        0.4012031675959610    
     1.887513262024577        0.3972085306178479    
     1.898952736339878        0.3932259073138288    
     1.910392210655178        0.3892563807510424    
     1.921831684970479        0.3853009828063801    
     1.933271159285779        0.3813606958703473    
     1.944710633601080        0.3774364545038698    
     1.956150107916380        0.3735291470490084    
     1.967589582231680        0.3696396171946579    
     1.979029056546981        0.3657686654981635    
     1.990468530862281        0.3619170508638755    
     2.001908005177582        0.3580854919795740    
     2.013347479492882        0.3542746687117462    
     2.024786953808183        0.3504852234606073    
     2.036226428123483        0.3467177624758093    
     2.047665902438784        0.3429728571337373    
     2.059105376754084        0.3392510451772894    
     2.070544851069385        0.3355528319190213    
     2.081984325384685        0.3318786914085267    
     2.093423799699986        0.3282290675649112    
     2.104863274015286        0.3246043752752045    
     2.116302748330587        0.3210050014595404    
     2.127742222645887        0.3174313061039348    
     2.139181696961188        0.3138836232614618    
     2.150621171276488        0.3103622620226307    
     2.162060645591788        0.3068675074557436    
     2.173500119907089        0.3033996215180051    
     2.184939594222389        0.2999588439381479    
     2.196379068537690        0.2965453930713126    
     2.207818542852990        0.2931594667269206    
     2.219258017168291        0.2898012429702533    
     2.230697491483591        0.2864708808984487    
     2.242136965798892        0.2831685213916063    
     2.253576440114192        0.2798942878396779    
     2.265015914429493        0.2766482868458128    
     2.276455388744793        0.2734306089068204    
     2.287894863060094        0.2702413290713680    
     2.299334337375394        0.2670805075765572    
     2.310773811690694        0.2639481904634796    
     2.322213286005995        0.2608444101723597    
     2.333652760321296        0.2577691861178838    
     2.345092234636596        0.2547225252452580    
     2.356531708951896        0.2517044225675755    
     2.367971183267197        0.2487148616850398    
     2.379410657582497        0.2457538152865693    
     2.390850131897798        0.2428212456343102    
     2.402289606213098        0.2399171050315712    
     2.413729080528399        0.2370413362746620    
     2.425168554843699        0.2341938730891587    
     2.436608029159000        0.2313746405510063    
     2.448047503474300        0.2285835554929773    
     2.459486977789600        0.2258205268968977    
     2.470926452104901        0.2230854562720863    
     2.482365926420202        0.2203782380204507    
     2.493805400735502        0.2176987597886281    
     2.505244875050802        0.2150469028075816    
     2.516684349366103        0.2124225422200758    
     2.528123823681403        0.2098255473963606    
     2.539563297996704        0.2072557822384671    
     2.551002772312004        0.2047131054734900    
     2.562442246627305        0.2021973709361553    
     2.573881720942605        0.1997084278410894    
     2.585321195257906        0.1972461210450532    
     2.596760669573206        0.1948102912994910    
     2.608200143888507        0.1924007754937334    
     2.619639618203807        0.1900174068891109    
     2.631079092519108        0.1876600153442929    
     2.642518566834408        0.1853284275321764    
     2.653958041149708        0.1830224671485377    
     2.665397515465009        0.1807419551127508    
     2.676836989780309        0.1784867097608657    
     2.688276464095610        0.1762565470312377    
     2.699715938410911        0.1740512806429886    
     2.711155412726211        0.1718707222675712    
     2.722594887041511        0.1697146816936017    
     2.734034361356812        0.1675829669852237    
     2.745473835672112        0.1654753846342532    
     2.756913309987413        0.1633917397062461    
     2.768352784302713        0.1613318359807330    
     2.779792258618014        0.1592954760858560    
     2.791231732933314        0.1572824616275209    
     2.802671207248614        0.1552925933132977    
     2.814110681563915        0.1533256710712830    
     2.825550155879216        0.1513814941640227    
     2.836989630194516        0.1494598612977092    
     2.848429104509817        0.1475605707268490    
     2.859868578825117        0.1456834203544883    
     2.871308053140417        0.1438282078281813    
     2.882747527455718        0.1419947306319113    
     2.894187001771019        0.1401827861739972    
     2.905626476086319        0.1383921718711897    
     2.917065950401619        0.1366226852291230    
     2.928505424716920        0.1348741239191757    
     2.939944899032220        0.1331462858519010    
     2.951384373347521        0.1314389692472026    
     2.962823847662821        0.1297519727012810    
     2.974263321978122        0.1280850952505027    
     2.985702796293422        0.1264381364323641    
     2.997142270608723        0.1248108963435491    
     3.008581744924023        0.1232031756952613    
     3.020021219239323        0.1216147758658834    
     3.031460693554624        0.1200454989511311    
     3.042900167869925        0.1184951478116995    
     3.054339642185225        0.1169635261185399    
     3.065779116500525        0.1154504383959020    
     3.077218590815826        0.1139556900621304    
     3.088658065131126        0.1124790874683309    
     3.100097539446427        0.1110204379350692    
     3.111537013761727        0.1095795497870327    
     3.122976488077028        0.1081562323858323    
     3.134415962392328        0.1067502961609747    
     3.145855436707629        0.1053615526390898    
     3.157294911022929        0.1039898144714764    
     3.168734385338229        0.1026348954599586    
     3.180173859653530        0.1012966105813329    
     3.191613333968831        0.9997477601016021E-01
     3.203052808284131        0.9866920914017703E-01
     3.214492282599431        0.9737972860430068E-01
     3.225931756914732        0.9610615429329852E-01
     3.237371231230032        0.9484830737315281E-01
     3.248810705545333        0.9360601030126731E-01
     3.260250179860633        0.9237908684131373E-01
     3.271689654175934        0.9116736207710621E-01
     3.283129128491234        0.8997066242536420E-01
     3.294568602806535        0.8878881564706614E-01
     3.306008077121835        0.8762165085865438E-01
     3.317447551437136        0.8646899854118867E-01
     3.328887025752436        0.8533069054974590E-01
     3.340326500067737        0.8420656012023418E-01
     3.351765974383037        0.8309644187688602E-01
     3.363205448698337        0.8200017183841653E-01
     3.374644923013638        0.8091758742262360E-01
     3.386084397328939        0.7984852745222867E-01
     3.397523871644239        0.7879283215793437E-01
     3.408963345959539        0.7775034318161392E-01
     3.420402820274840        0.7672090357922720E-01
     3.431842294590140        0.7570435782168328E-01
     3.443281768905441        0.7470055179668066E-01
     3.454721243220741        0.7370933280869509E-01
     3.466160717536042        0.7273054957965329E-01
     3.477600191851342        0.7176405224799191E-01
     3.489039666166643        0.7080969236758045E-01
     3.500479140481943        0.6986732290646690E-01
     3.511918614797243        0.6893679824425458E-01
     3.523358089112544        0.6801797416989537E-01
     3.534797563427845        0.6711070787874364E-01
     3.546237037743145        0.6621485796873409E-01
     3.557676512058446        0.6533028443732559E-01
     3.569115986373746        0.6445684867687440E-01
     3.580555460689046        0.6359441347010211E-01
     3.591994935004347        0.6274284298557342E-01
     3.603434409319648        0.6190200277179075E-01
     3.614873883634948        0.6107175975204637E-01
     3.626313357950248        0.6025198221852717E-01
     3.637752832265549        0.5944253982586531E-01
     3.649192306580849        0.5864330358523385E-01
     3.660631780896150        0.5785414585732915E-01
     3.672071255211450        0.5707494034548283E-01
     3.683510729526751        0.5630556208861260E-01
     3.694950203842051        0.5554588745359983E-01
     3.706389678157352        0.5479579412781516E-01
     3.717829152472652        0.5405516111128390E-01
     3.729268626787952        0.5332386870860973E-01
     3.740708101103253        0.5260179852090733E-01
     3.752147575418554        0.5188883343736973E-01
     3.763587049733854        0.5118485762676967E-01
     3.775026524049154        0.5048975652879138E-01
     3.786465998364455        0.4980341684522292E-01
     3.797905472679755        0.4912572653101376E-01
     3.809344946995056        0.4845657478521314E-01
     3.820784421310356        0.4779585204177032E-01
     3.832223895625657        0.4714344996027464E-01
     3.843663369940957        0.4649926141654734E-01
     3.855102844256258        0.4586318049316628E-01
     3.866542318571558        0.4523510246988329E-01
     3.877981792886859        0.4461492381399953E-01
     3.889421267202159        0.4400254217063249E-01
     3.900860741517460        0.4339785635293700E-01
     3.912300215832760        0.4280076633224614E-01
     3.923739690148060        0.4221117322819473E-01
     3.935179164463361        0.4162897929876000E-01
     3.946618638778661        0.4105408793027559E-01
     3.958058113093962        0.4048640362740820E-01
     3.969497587409262        0.3992583200308786E-01
     3.980937061724563        0.3937227976844343E-01
     3.992376536039863        0.3882565472268230E-01
     4.003816010355163        0.3828586574297186E-01
     4.015255484670464        0.3775282277428824E-01
     4.026694958985765        0.3722643681929082E-01
     4.038134433301066        0.3670661992815694E-01
     4.049573907616366        0.3619328518843523E-01
     4.061013381931666        0.3568634671488295E-01
     4.072452856246967        0.3518571963934146E-01
     4.083892330562267        0.3469132010059130E-01
     4.095331804877567        0.3420306523423405E-01
     4.106771279192868        0.3372087316259079E-01
     4.118210753508168        0.3324466298460602E-01
     4.129650227823469        0.3277435476580462E-01
     4.141089702138769        0.3230986952824295E-01
     4.152529176454069        0.3185112924050545E-01
     4.163968650769371        0.3139805680771446E-01
     4.175408125084671        0.3095057606160364E-01
     4.186847599399972        0.3050861175059694E-01
     4.198287073715272        0.3007208952993929E-01
     4.209726548030572        0.2964093595186655E-01
     4.221166022345873        0.2921507845580434E-01
     4.232605496661173        0.2879444535863964E-01
     4.244044970976473        0.2837896584500857E-01
     4.255484445291774        0.2796856995764886E-01
     4.266923919607074        0.2756318858778422E-01
     4.278363393922375        0.2716275346558876E-01
     4.289802868237675        0.2676719715067624E-01
     4.301242342552976        0.2637645302265520E-01
     4.312681816868277        0.2599045527174003E-01
     4.324121291183577        0.2560913888940459E-01
     4.335560765498878        0.2523243965912191E-01
     4.347000239814178        0.2486029414713504E-01
     4.358439714129478        0.2449263969330051E-01
     4.369879188444779        0.2412941440199306E-01
     4.381318662760079        0.2377055713305882E-01
     4.392758137075379        0.2341600749285958E-01
     4.404197611390680        0.2306570582535210E-01
     4.415637085705980        0.2271959320324567E-01
     4.427076560021281        0.2237761141922411E-01
     4.438516034336581        0.2203970297722127E-01
     4.449955508651882        0.2170581108378991E-01
     4.461394982967183        0.2137587963950965E-01
     4.472834457282483        0.2104985323047607E-01
     4.484273931597784        0.2072767711985688E-01
     4.495713405913084        0.2040929723950502E-01
     4.507152880228384        0.2009466018166584E-01
     4.518592354543685        0.1978371319072678E-01
     4.530031828858985        0.1947640415505201E-01
     4.541471303174286        0.1917268159887076E-01
     4.552910777489586        0.1887249467426222E-01
     4.564350251804886        0.1857579315318456E-01
     4.575789726120187        0.1828252741958589E-01
     4.587229200435488        0.1799264846158569E-01
     4.598668674750788        0.1770610786371371E-01
     4.610108149066089        0.1742285779924465E-01
     4.621547623381389        0.1714285102257870E-01
     4.632987097696690        0.1686604086170337E-01
     4.644426572011990        0.1659238121072617E-01
     4.655866046327290        0.1632182652246471E-01
     4.667305520642591        0.1605433180113178E-01
     4.678744994957891        0.1578985259506663E-01
     4.690184469273192        0.1552834498954658E-01
     4.701623943588492        0.1526976559966651E-01
     4.713063417903792        0.1501407156328943E-01
     4.724502892219093        0.1476122053405535E-01
     4.735942366534394        0.1451117067448258E-01
     4.747381840849694        0.1426388064911333E-01
     4.758821315164995        0.1401930961773956E-01
     4.770260789480295        0.1377741722869678E-01
     4.781700263795596        0.1353816361221443E-01
     4.793139738110896        0.1330150937385679E-01
     4.804579212426196        0.1306741558800753E-01
     4.816018686741497        0.1283584379143232E-01
     4.827458161056797        0.1260675597690773E-01
     4.838897635372098        0.1238011458690494E-01
     4.850337109687398        0.1215588250736170E-01
     4.861776584002699        0.1193402306149679E-01
     4.873216058318000        0.1171450000369997E-01
     4.884655532633300        0.1149727751348609E-01
     4.896095006948601        0.1128232018950277E-01
     4.907534481263901        0.1106959304362208E-01
     4.918973955579201        0.1085906149507483E-01
     4.930413429894502        0.1065069136465685E-01
     4.941852904209802        0.1044444886899538E-01
     4.953292378525102        0.1024030061487833E-01
     4.964731852840403        0.1003821359363576E-01
     4.976171327155703        0.9838155175600565E-02
     4.987610801471004        0.9640093104609691E-02
     4.999050275786304        0.9443995492574324E-02
     5.010489750101605        0.9249830814108635E-02
     5.021929224416906        0.9057567901208130E-02
     5.033368698732206        0.8867175938003870E-02
     5.044808173047507        0.8678624455555920E-02
     5.056247647362807        0.8491883326712236E-02
     5.067687121678107        0.8306922761021879E-02
     5.079126595993408        0.8123713299705373E-02
     5.090566070308708        0.7942225810672721E-02
     5.102005544624008        0.7762431483611453E-02
     5.113445018939309        0.7584301825112730E-02
     5.124884493254609        0.7407808653858752E-02
     5.136323967569910        0.7232924095862694E-02
     5.147763441885211        0.7059620579753874E-02
     5.159202916200511        0.6887870832129223E-02
     5.170642390515812        0.6717647872941449E-02
     5.182081864831112        0.6548925010944700E-02
     5.193521339146413        0.6381675839188822E-02
     5.204960813461713        0.6215874230564409E-02
     5.216400287777013        0.6051494333390369E-02
     5.227839762092314        0.5888510567062786E-02
     5.239279236407614        0.5726897617738576E-02
     5.250718710722915        0.5566630434072513E-02
     5.262158185038215        0.5407684222999846E-02
     5.273597659353515        0.5250034445565743E-02
     5.285037133668816        0.5093656812795232E-02
     5.296476607984117        0.4938527281618903E-02
     5.307916082299417        0.4784622050831774E-02
     5.319355556614718        0.4631917557101593E-02
     5.330795030930018        0.4480390471020209E-02
     5.342234505245319        0.4330017693192854E-02
     5.353673979560619        0.4180776350379238E-02
     5.365113453875919        0.4032643791666772E-02
     5.376552928191220        0.3885597584689362E-02
     5.387992402506520        0.3739615511885878E-02
     5.399431876821821        0.3594675566799181E-02
     5.410871351137121        0.3450755950411033E-02
     5.422310825452421        0.3307835067523230E-02
     5.433750299767723        0.3165891523169778E-02
     5.445189774083023        0.3024904119070402E-02
     5.456629248398323        0.2884851850120558E-02
     5.468068722713624        0.2745713900913602E-02
     5.479508197028924        0.2607469642323652E-02
     5.490947671344225        0.2470098628074046E-02
     5.502387145659525        0.2333580591390681E-02
     5.513826619974825        0.2197895441666048E-02
     5.525266094290126        0.2063023261162049E-02
     5.536705568605426        0.1928944301378966E-02
     5.548145042920727        0.1795638981356939E-02
     5.559584517236027        0.1663087882180879E-02
     5.571023991551328        0.1531271745262545E-02
     5.582463465866629        0.1400171468871166E-02
     5.593902940181929        0.1269768105032692E-02
     5.605342414497229        0.1140042844488727E-02
     5.616781888812530        0.1010977062540737E-02
     5.628221363127830        0.8825522448671944E-03
     5.639660837443131        0.7547500283457991E-03
     5.651100311758431        0.6275521878209668E-03
     5.662539786073731        0.5009406329103753E-03
     5.673979260389032        0.3748966243561460E-03
     5.685418734704332        0.2494038299181187E-03
     5.696858209019633        0.1244440978140132E-03
     5.708297683334933         0.000000000000000    
  0  3  2  0  0.000000   #orbital l, n, z, is_polarized, population
 500    0.7961022011275127E-02     3.972549983626288     # npts, delta, cutoff
     0.000000000000000       -0.3700394331608711E-01
    0.7961022011275127E-02   -0.3691954625788626E-01
    0.1592204402255025E-01   -0.3666570692954234E-01
    0.2388306603382538E-01   -0.3624268437733089E-01
    0.3184408804510051E-01   -0.3565054437516118E-01
    0.3980511005637563E-01   -0.3488938139453946E-01
    0.4776613206765076E-01   -0.3395932098610709E-01
    0.5572715407892589E-01   -0.3286052278350202E-01
    0.6368817609020101E-01   -0.3159318410205360E-01
    0.7164919810147614E-01   -0.3015754409150564E-01
    0.7961022011275126E-01   -0.2855388839484658E-01