<preamble>

<basis_specs>
===============================================================================
Sb                   Z=  51    Mass=  121.75        Charge= 0.17977+309
Lmxo=2 Lmxkb= 2    BasisType=split      Semic=T
L=0  Nsemic=0  Cnfigmx=5
          n=1  nzeta=2  polorb=0  (5s)
            splnorm:   0.15000    
               vcte:    0.0000    
               rinn:    0.0000    
               qcoe:    0.0000    
               qyuk:    0.0000    
               qwid:   0.10000E-01
                rcs:    5.3024      3.8311    
            lambdas:    1.0000      1.0000    
L=1  Nsemic=0  Cnfigmx=5
          n=1  nzeta=2  polorb=1  (5p)  (to be polarized perturbatively)
            splnorm:   0.15000    
               vcte:    0.0000    
               rinn:    0.0000    
               qcoe:    0.0000    
               qyuk:    0.0000    
               qwid:   0.10000E-01
                rcs:    6.8085      5.0438    
            lambdas:    1.0000      1.0000    
L=2  Nsemic=1  Cnfigmx=5
          n=1  nzeta=1  polorb=0  (4d)
            splnorm:   0.15000    
               vcte:    0.0000    
               rinn:    0.0000    
               qcoe:    0.0000    
               qyuk:    0.0000    
               qwid:   0.10000E-01
                rcs:    3.0592    
            lambdas:    1.0000    
          n=2  nzeta=0  polorb=0  (5d)  (perturbative polarization orbital)
-------------------------------------------------------------------------------
L=0  Nkbl=1  erefs: 0.17977+309
L=1  Nkbl=1  erefs: 0.17977+309
L=2  Nkbl=2  erefs: 0.17977+309 0.17977+309
===============================================================================
</basis_specs>

<pseudopotential_header>
 Sb pb rel pcec
 ONCVPSP-3.2018-04-23Hamann's oncvpsp                        
 5s 2.00r r= 2.00/5p 3.00r r= 2.12/4d10.00r r= 1.82/                   
</pseudopotential_header>
</preamble>
Sb                            # Symbol
Sb                            # Label
   51                         # Atomic number
     15.0000000000                             # Valence charge
     121.750000000        # Mass 
     226.801065060        # Self energy 
   2   6                      # Lmax for basis, no. of nl orbitals 
   2   8                      # Lmax for projectors, no. of nl KB projectors
# PAOs:__________________________
  0  5  1  0  2.000000   #orbital l, n, z, is_polarized, population
 500    0.1062611217234376E-01     5.302429973999536     # npts, delta, cutoff
     0.000000000000000        0.5927368764059626E-01
    0.1062611217234376E-01    0.5934540274984834E-01
    0.2125222434468752E-01    0.5956067912353397E-01
    0.3187833651703128E-01    0.5991901581566304E-01
    0.4250444868937504E-01    0.6041972873838536E-01
    0.5313056086171879E-01    0.6106186379079570E-01
    0.6375667303406256E-01    0.6184420045917638E-01
    0.7438278520640632E-01    0.6276525641915062E-01
    0.8500889737875007E-01    0.6382329311851537E-01
    0.9563500955109383E-01    0.6501632231571500E-01
    0.1062611217234376        0.6634211354471750E-01
    0.1168872338957813        0.6779820247294757E-01
    0.1275133460681251        0.6938190011497430E-01
    0.1381394582404689        0.7109030286086469E-01
    0.1487655704128126        0.7292030327452481E-01
    0.1593916825851564        0.7486860161396590E-01
    0.1700177947575001        0.7693171802227446E-01
    0.1806439069298439        0.7910600533514452E-01
    0.1912700191021877        0.8138766244816389E-01
    0.2018961312745314        0.8377274818464298E-01
    0.2125222434468752        0.8625719560264558E-01
    0.2231483556192189        0.8883682667803970E-01
    0.2337744677915627        0.9150736729883806E-01
    0.2444005799639065        0.9426446250484942E-01
    0.2550266921362502        0.9710369190572216E-01
    0.2656528043085940        0.1000205852098251    
    0.2762789164809377        0.1030106377961032    
    0.2869050286532815        0.1060693262610337    
    0.2975311408256253        0.1091921238731218    
    0.3081572529979690        0.1123745158680039    
    0.3187833651703127        0.1156120145181535    
    0.3294094773426565        0.1189001739124196    
    0.3400355895150003        0.1222346043821744    
    0.3506617016873441        0.1256109865126527    
    0.3612878138596878        0.1290250846801951    
    0.3719139260320315        0.1324727600584556    
    0.3825400382043753        0.1359499830392998    
    0.3931661503767191        0.1394528450169703    
    0.4037922625490629        0.1429775694872360    
    0.4144183747214066        0.1465205224165477    
    0.4250444868937504        0.1500782218397680    
    0.4356705990660941        0.1536473466487441    
    0.4462967112384379        0.1572247445378729    
    0.4569228234107817        0.1608074390768330    
    0.4675489355831254        0.1643926358847978    
    0.4781750477554692        0.1679777278847049    
    0.4888011599278129        0.1715602996205021    
    0.4994272721001567        0.1751381306246835    
    0.5100533842725005        0.1787091978278953    
    0.5206794964448442        0.1822716770068462    
    0.5313056086171880        0.1858239432712438    
    0.5419317207895317        0.1893645705949355    
    0.5525578329618754        0.1928923304008233    
    0.5631839451342192        0.1964061892135045    
    0.5738100573065630        0.1999053053978359    
    0.5844361694789068        0.2033890250057948    
    0.5950622816512505        0.2068568767580595    
    0.6056883938235943        0.2103085661906247    
    0.6163145059959381        0.2137439690005341    
    0.6269406181682818        0.2171631236283585    
    0.6375667303406255        0.2205662231184446    
    0.6481928425129693        0.2239536063011314    
    0.6588189546853130        0.2273257483440616    
    0.6694450668576568        0.2306832507224611    
    0.6800711790300006        0.2340268306606865    
    0.6906972912023444        0.2373573100996039    
    0.7013234033746881        0.2406756042462432    
    0.7119495155470319        0.2439827097638979    
    0.7225756277193757        0.2472796926621744    
    0.7332017398917193        0.2505676759476368    
    0.7438278520640631        0.2538478270964540    
    0.7544539642364069        0.2571213454110127    
    0.7650800764087506        0.2603894493226176    
    0.7757061885810944        0.2636533637023881    
    0.7863323007534382        0.2669143072420068    
    0.7969584129257820        0.2701734799653804    
    0.8075845250981257        0.2734320509312769    
    0.8182106372704695        0.2766911461857705    
    0.8288367494428132        0.2799518370218443    
    0.8394628616151569        0.2832151286016928    
    0.8500889737875007        0.2864819489952767    
    0.8607150859598445        0.2897531386863580    
    0.8713411981321882        0.2930294405947920    
    0.8819673103045320        0.2963114906610835    
    0.8925934224768758        0.2995998090363034    
    0.9032195346492196        0.3028947919173380    
    0.9138456468215633        0.3061967040641385    
    0.9244717589939070        0.3095056720321899    
    0.9350978711662508        0.3128216781498288    
    0.9457239833385945        0.3161445552662953    
    0.9563500955109383        0.3194739822926231    
    0.9669762076832821        0.3228094805535333    
    0.9776023198556258        0.3261504109645315    
    0.9882284320279696        0.3294959720444050    
    0.9988545442003134        0.3328451987692406    
     1.009480656372657        0.3361969622700617    
     1.020106768545001        0.3395499703721410    
     1.030732880717345        0.3429027689700229    
     1.041358992889688        0.3462537442283210    
     1.051985105062032        0.3496011255945075    
     1.062611217234376        0.3529429896061136    
     1.073237329406720        0.3562772644710399    
     1.083863441579063        0.3596017353961160    
     1.094489553751407        0.3629140506356613    
     1.105115665923751        0.3662117282284732    
     1.115741778096095        0.3694921633886161    
     1.126367890268438        0.3727526365124874    
     1.136994002440782        0.3759903217618606    
     1.147620114613126        0.3792022961801951    
     1.158246226785470        0.3823855492970869    
     1.168872338957814        0.3855369931738591    
     1.179498451130157        0.3886534728413367    
     1.190124563302501        0.3917317770794470    
     1.200750675474845        0.3947686494867597    
     1.211376787647189        0.3977607997871876    
     1.222002899819532        0.4007049153203548    
     1.232629011991876        0.4035976726614454    
     1.243255124164220        0.4064357493161509    
     1.253881236336564        0.4092158354363010    
     1.264507348508907        0.4119346455022709    
     1.275133460681251        0.4145889299184988    
     1.285759572853595        0.4171754864692328    
     1.296385685025939        0.4196911715829753    
     1.307011797198282        0.4221329113551024    
     1.317637909370626        0.4244977122795944    
     1.328264021542970        0.4267826716429170    
     1.338890133715314        0.4289849875347080    
     1.349516245887658        0.4311019684320889    
     1.360142358060001        0.4331310423171355    
     1.370768470232345        0.4350697652892133    
     1.381394582404689        0.4369158296366394    
     1.392020694577032        0.4386670713353338    
     1.402646806749376        0.4403214769445419    
     1.413272918921720        0.4418771898734382    
     1.423899031094064        0.4433325159952099    
     1.434525143266407        0.4446859285886641    
     1.445151255438751        0.4459360725909408    
     1.455777367611095        0.4470817681480782    
     1.466403479783439        0.4481220134539272    
     1.477029591955783        0.4490559868711538    
     1.487655704128126        0.4498830483318632    
     1.498281816300470        0.4506027400184573    
     1.508907928472814        0.4512147863293703    
     1.519534040645158        0.4517190931369600    
     1.530160152817501        0.4521157463490863    
     1.540786264989845        0.4524050097882965    
     1.551412377162189        0.4525873224060852    
     1.562038489334532        0.4526632948533225    
     1.572664601506876        0.4526337054291327    
     1.583290713679220        0.4524994954359423    
     1.593916825851564        0.4522617639677440    
     1.604542938023908        0.4519217621648742    
     1.615169050196251        0.4514808869666525    
     1.625795162368595        0.4509406743999555    
     1.636421274540939        0.4503027924387492    
     1.647047386713283        0.4495690334764957    
     1.657673498885626        0.4487413064492757    
     1.668299611057970        0.4478216286548647    
     1.678925723230314        0.4468121173076406    
     1.689551835402658        0.4457149805769163    
     1.700177947575001        0.4445325102525205    
     1.710804059747345        0.4432670710087661    
     1.721430171919689        0.4419210881080908    
     1.732056284092033        0.4404970470213614    
     1.742682396264376        0.4389974834618173    
     1.753308508436720        0.4374249732183244    
     1.763934620609064        0.4357821076779555    
     1.774560732781408        0.4340714911430066    
     1.785186844953752        0.4322957483701131    
     1.795812957126095        0.4304575116605392    
     1.806439069298439        0.4285594035413280    
     1.817065181470783        0.4266040317951134    
     1.827691293643127        0.4245939841723304    
     1.838317405815470        0.4225318198348891    
     1.848943517987814        0.4204200626655096    
     1.859569630160158        0.4182611951060137    
     1.870195742332502        0.4160576519170051    
     1.880821854504845        0.4138118147087674    
     1.891447966677189        0.4115260070311411    
     1.902074078849533        0.4092024898286468    
     1.912700191021877        0.4068434575136456    
     1.923326303194220        0.4044510344920586    
     1.933952415366564        0.4020272722137331    
     1.944578527538908        0.3995741469484472    
     1.955204639711252        0.3970935567543399    
     1.965830751883595        0.3945873217440400    
     1.976456864055939        0.3920571863486932    
     1.987082976228283        0.3895048100363310    
     1.997709088400627        0.3869317728330438    
     2.008335200572970        0.3843395782978083    
     2.018961312745314        0.3817296673963950    
     2.029587424917658        0.3791034199159598    
     2.040213537090002        0.3764621700896150    
     2.050839649262346        0.3738072137630518    
     2.061465761434689        0.3711398004957429    
     2.072091873607033        0.3684611388063037    
     2.082717985779377        0.3657723952436358    
     2.093344097951721        0.3630746981279640    
     2.103970210124064        0.3603691367948846    
     2.114596322296408        0.3576567634933404    
     2.125222434468752        0.3549385942077760    
     2.135848546641096        0.3522156097314230    
     2.146474658813439        0.3494887566809471    
     2.157100770985783        0.3467589484612858    
     2.167726883158127        0.3440270662440152    
     2.178352995330471        0.3412939598788746    
     2.188979107502814        0.3385604488047945    
     2.199605219675158        0.3358273228886999    
     2.210231331847502        0.3330953432803037    
     2.220857444019846        0.3303652432565257    
     2.231483556192190        0.3276377290179820    
     2.242109668364533        0.3249134804700730    
     2.252735780536877        0.3221931519861976    
     2.263361892709221        0.3194773731575403    
     2.273988004881565        0.3167667494821186    
     2.284614117053908        0.3140618630746223    
     2.295240229226252        0.3113632733255842    
     2.305866341398596        0.3086715175986167    
     2.316492453570940        0.3059871118567816    
     2.327118565743283        0.3033105513028263    
     2.337744677915627        0.3006423109634397    
     2.348370790087971        0.2979828462945122    
     2.358996902260314        0.2953325937504520    
     2.369623014432658        0.2926919713557317    
     2.380249126605002        0.2900613792469237    
     2.390875238777346        0.2874412002011260    
     2.401501350949689        0.2848318001547501    
     2.412127463122034        0.2822335287053141    
     2.422753575294377        0.2796467196023116    
     2.433379687466721        0.2770716912228210    
     2.444005799639065        0.2745087470353098    
     2.454631911811408        0.2719581760503886    
     2.465258023983752        0.2694202532598590    
     2.475884136156096        0.2668952400636923    
     2.486510248328440        0.2643833846856937    
     2.497136360500783        0.2618849225777854    
     2.507762472673127        0.2594000768134233    
     2.518388584845471        0.2569290584704115    
     2.529014697017815        0.2544720670033045    
     2.539640809190158        0.2520292906057194    
     2.550266921362502        0.2496009065628620    
     2.560893033534846        0.2471870815944194    
     2.571519145707190        0.2447879721881255    
     2.582145257879533        0.2424037249242799    
     2.592771370051877        0.2400344767913558    
     2.603397482224221        0.2376803554929817    
     2.614023594396565        0.2353414797465605    
     2.624649706568909        0.2330179595736425    
     2.635275818741252        0.2307098965823235    
     2.645901930913596        0.2284173842419054    
     2.656528043085940        0.2261405081499338    
     2.667154155258284        0.2238793462918591    
     2.677780267430627        0.2216339692935397    
     2.688406379602971        0.2194044406667024    
     2.699032491775315        0.2171908170475655    
     2.709658603947659        0.2149931484288730    
     2.720284716120002        0.2128114783853866    
     2.730910828292346        0.2106458442930758    
     2.741536940464690        0.2084962775421913    
     2.752163052637034        0.2063628037443140    
     2.762789164809377        0.2042454429335698    
     2.773415276981721        0.2021442097621866    
     2.784041389154065        0.2000591136904887    
     2.794667501326409        0.1979901591715134    
     2.805293613498753        0.1959373458303473    
     2.815919725671096        0.1939006686384126    
     2.826545837843440        0.1918801180827034    
     2.837171950015783        0.1898756803301843    
     2.847798062188128        0.1878873373874962    
     2.858424174360471        0.1859150672560236    
     2.869050286532815        0.1839588440824811    
     2.879676398705159        0.1820186383051691    
     2.890302510877503        0.1800944167959464    
     2.900928623049846        0.1781861429980842    
     2.911554735222190        0.1762937770600645    
     2.922180847394534        0.1744172759655166    
     2.932806959566877        0.1725565936592769    
     2.943433071739221        0.1707116811697399    
     2.954059183911565        0.1688824867276312    
     2.964685296083909        0.1670689558812139    
     2.975311408256252        0.1652710316080893    
     2.985937520428597        0.1634886544236399    
     2.996563632600940        0.1617217624862690    
     3.007189744773284        0.1599702916994359    
     3.017815856945627        0.1582341758106146    
     3.028441969117971        0.1565133465073081    
     3.039068081290315        0.1548077335100982    
     3.049694193462659        0.1531172646628877    
     3.060320305635003        0.1514418660203614    
     3.070946417807346        0.1497814619328133    
     3.081572529979690        0.1481359751283161    
     3.092198642152034        0.1465053267923538    
     3.102824754324378        0.1448894366450302    
     3.113450866496721        0.1432882230158272    
     3.124076978669065        0.1417016029160533    
     3.134703090841409        0.1401294921089868    
     3.145329203013753        0.1385718051778748    
     3.155955315186096        0.1370284555917171    
     3.166581427358440        0.1354993557689926    
     3.177207539530784        0.1339844171393409    
     3.187833651703128        0.1324835502032874    
     3.198459763875471        0.1309966645900348    
     3.209085876047815        0.1295236691133641    
     3.219711988220159        0.1280644718257903    
     3.230338100392503        0.1266189800708871    
     3.240964212564847        0.1251871005340037    
     3.251590324737190        0.1237687392908769    
     3.262216436909534        0.1223638018555546    
     3.272842549081878        0.1209721932258171    
     3.283468661254222        0.1195938179269477    
     3.294094773426565        0.1182285800569754    
     3.304720885598909        0.1168763833238153    
     3.315346997771253        0.1155371310878122    
     3.325973109943597        0.1142107264020908    
     3.336599222115940        0.1128970720391395    
     3.347225334288284        0.1115960705451825    
     3.357851446460628        0.1103076242631329    
     3.368477558632972        0.1090316353618347    
     3.379103670805315        0.1077680058990585    
     3.389729782977659        0.1065166377986260    
     3.400355895150003        0.1052774329150445    
     3.410982007322346        0.1040502930690445    
     3.421608119494691        0.1028351200113935    
     3.432234231667034        0.1016318155634020    
     3.442860343839378        0.1004402815705859    
     3.453486456011722        0.9926041992206866E-01
     3.464112568184066        0.9809213267387226E-01
     3.474738680356409        0.9693532189775425E-01
     3.485364792528753        0.9578988981318595E-01
     3.495990904701097        0.9465573880886073E-01
     3.506617016873440        0.9353277134792996E-01
     3.517243129045784        0.9242089018594447E-01
     3.527869241218128        0.9131999826689752E-01
     3.538495353390472        0.9022999874794964E-01
     3.549121465562815        0.8915079511797566E-01
     3.559747577735159        0.8808229104668495E-01
     3.570373689907503        0.8702439050325995E-01
     3.580999802079847        0.8597699776289142E-01
     3.591625914252190        0.8494001735496537E-01
     3.602252026424534        0.8391335418374550E-01
     3.612878138596878        0.8289691347833451E-01
     3.623504250769222        0.8189060081299572E-01
     3.634130362941566        0.8089432215170821E-01
     3.644756475113909        0.7990798381107284E-01
     3.655382587286253        0.7893149250011475E-01
     3.666008699458597        0.7796475532473152E-01
     3.676634811630941        0.7700767979956850E-01
     3.687260923803284        0.7606017384976123E-01
     3.697887035975628        0.7512214583406605E-01
     3.708513148147972        0.7419350454490521E-01
     3.719139260320316        0.7327415921948897E-01
     3.729765372492659        0.7236401954601104E-01
     3.740391484665003        0.7146299567455838E-01
     3.751017596837347        0.7057099822243516E-01
     3.761643709009691        0.6968793828048751E-01
     3.772269821182034        0.6881372742386389E-01
     3.782895933354378        0.6794827771154355E-01
     3.793522045526722        0.6709150169591718E-01
     3.804148157699066        0.6624331242732864E-01
     3.814774269871410        0.6540362345972189E-01
     3.825400382043753        0.6457234885275011E-01
     3.836026494216097        0.6374940318058385E-01
     3.846652606388441        0.6293470153329925E-01
     3.857278718560785        0.6212815952115649E-01
     3.867904830733128        0.6132969327917884E-01
     3.878530942905472        0.6053921946892849E-01
     3.889157055077816        0.5975665528245250E-01
     3.899783167250160        0.5898191844485715E-01
     3.910409279422503        0.5821492721689328E-01
     3.921035391594847        0.5745560039697767E-01
     3.931661503767191        0.5670385732367726E-01
     3.942287615939535        0.5595961787726811E-01
     3.952913728111878        0.5522280248140887E-01
     3.963539840284222        0.5449333210455470E-01
     3.974165952456566        0.5377112826113974E-01
     3.984792064628909        0.5305611301258830E-01
     3.995418176801254        0.5234820896812386E-01
     4.006044288973597        0.5164733928540300E-01
     4.016670401145941        0.5095342767093178E-01
     4.027296513318285        0.5026639838039149E-01
     4.037922625490628        0.4958617621871788E-01
     4.048548737662972        0.4891268654005654E-01
     4.059174849835316        0.4824585524756218E-01
     4.069800962007660        0.4758560879301554E-01
     4.080427074180004        0.4693187417636254E-01
     4.091053186352347        0.4628457894504569E-01
     4.101679298524691        0.4564365119323221E-01
     4.112305410697035        0.4500901956091100E-01
     4.122931522869378        0.4438061323283347E-01
     4.133557635041722        0.4375836193739689E-01
     4.144183747214066        0.4314219594534433E-01
     4.154809859386410        0.4253204606838321E-01
     4.165435971558754        0.4192784365769359E-01
     4.176062083731098        0.4132952060230318E-01
     4.186688195903441        0.4073700932742062E-01
     4.197314308075785        0.4015024279260885E-01
     4.207940420248129        0.3956915448990015E-01
     4.218566532420472        0.3899367844178562E-01
     4.229192644592816        0.3842374919917473E-01
     4.239818756765160        0.3785930183921553E-01
     4.250444868937504        0.3730027196305866E-01
     4.261070981109848        0.3674659569354443E-01
     4.271697093282191        0.3619820967278727E-01
     4.282323205454535        0.3565505105974312E-01
     4.292949317626879        0.3511705752765484E-01
     4.303575429799222        0.3458416726145523E-01
     4.314201541971566        0.3405631895510185E-01
     4.324827654143910        0.3353345180885459E-01
     4.335453766316253        0.3301550552647209E-01
     4.346079878488598        0.3250242031240063E-01
     4.356705990660942        0.3199413686885864E-01
     4.367332102833285        0.3149059639289434E-01
     4.377958215005629        0.3099174057339364E-01
     4.388584327177973        0.3049751158801860E-01
     4.399210439350316        0.3000785210014824E-01
     4.409836551522660        0.2952270525572776E-01
     4.420462663695004        0.2904201468010071E-01
     4.431088775867347        0.2856572447480145E-01
     4.441714888039692        0.2809377921428929E-01
     4.452341000212035        0.2762612394269236E-01
     4.462967112384379        0.2716270417047204E-01
     4.473593224556723        0.2670346587107826E-01
     4.484219336729066        0.2624835547757410E-01
     4.494845448901410        0.2579731987921151E-01
     4.505471561073754        0.2535030641802265E-01
     4.516097673246097        0.2490726288534365E-01
     4.526723785418441        0.2446813751833467E-01
     4.537349897590786        0.2403287899647780E-01
     4.547976009763129        0.2360143643803428E-01
     4.558602121935473        0.2317375939652182E-01
     4.569228234107817        0.2274979785713515E-01
     4.579854346280160        0.2232950223316761E-01
     4.590480458452504        0.2191282336241377E-01
     4.601106570624848        0.2149971250356077E-01
     4.611732682797191        0.2109012133254907E-01
     4.622358794969535        0.2068400193895766E-01
     4.632984907141879        0.2028130682234093E-01
     4.643611019314223        0.1988198888857393E-01
     4.654237131486567        0.1948600144618836E-01
     4.664863243658910        0.1909329820268326E-01
     4.675489355831254        0.1870383326086492E-01
     4.686115468003598        0.1831756111514484E-01
     4.696741580175941        0.1793443664784995E-01
     4.707367692348285        0.1755441512552529E-01
     4.717993804520629        0.1717745219523644E-01
     4.728619916692973        0.1680350388085346E-01
     4.739246028865317        0.1643252657936709E-01
     4.749872141037661        0.1606447705716933E-01
     4.760498253210004        0.1569931244635109E-01
     4.771124365382348        0.1533699024100019E-01
     4.781750477554692        0.1497746829348440E-01
     4.792376589727035        0.1462070481076976E-01
     4.803002701899379        0.1426665835070872E-01
     4.813628814071722        0.1391528781834717E-01
     4.824254926244067        0.1356655246223238E-01
     4.834881038416411        0.1322041187072866E-01
     4.845507150588754        0.1287682596832176E-01
     4.856133262761098        0.1253575501196230E-01
     4.866759374933442        0.1219715958738185E-01
     4.877385487105785        0.1186100060543186E-01
     4.888011599278129        0.1152723929842663E-01
     4.898637711450473        0.1119583721649652E-01
     4.909263823622816        0.1086675622393457E-01
     4.919889935795161        0.1053995849558256E-01
     4.930516047967505        0.1021540651319428E-01
     4.941142160139848        0.9893063061823503E-02
     4.951768272312192        0.9572891226221932E-02
     4.962394384484536        0.9254854387231101E-02
     4.973020496656879        0.8938916218216682E-02
     4.983646608829223        0.8625040681482147E-02
     4.994272721001566        0.8313192024708245E-02
     5.004898833173910        0.8003334777400978E-02
     5.015524945346255        0.7695433747354117E-02
     5.026151057518598        0.7389454017108059E-02
     5.036777169690942        0.7085360940452287E-02
     5.047403281863286        0.6783120138909061E-02
     5.058029394035629        0.6482697498244525E-02
     5.068655506207973        0.6184059164989770E-02
     5.079281618380317        0.5887171542996272E-02
     5.089907730552660        0.5592001289892873E-02
     5.100533842725004        0.5298515313783832E-02
     5.111159954897349        0.5006680769734697E-02
     5.121786067069692        0.4716465056380246E-02
     5.132412179242036        0.4427835812525425E-02
     5.143038291414380        0.4140760913876051E-02
     5.153664403586723        0.3855208469185320E-02
     5.164290515759067        0.3571146817620194E-02
     5.174916627931410        0.3288544524962899E-02
     5.185542740103754        0.3007370380388331E-02
     5.196168852276098        0.2727593393149820E-02
     5.206794964448442        0.2449182784387093E-02
     5.217421076620786        0.2172108003806755E-02
     5.228047188793130        0.1896338697330385E-02
     5.238673300965473        0.1621844721723017E-02
     5.249299413137817        0.1348596137140086E-02
     5.259925525310161        0.1076563203775362E-02
     5.270551637482504        0.8057155593627619E-03
     5.281177749654848        0.5360254265509699E-03
     5.291803861827192        0.2674631768603785E-03
     5.302429973999536         0.000000000000000    
  0  5  2  0  0.000000   #orbital l, n, z, is_polarized, population
 500    0.7677629681338137E-02     3.831137210987730     # npts, delta, cutoff
     0.000000000000000       -0.3238787001651720    
    0.7677629681338137E-02   -0.3237983559391257    
    0.1535525936267627E-01   -0.3235568349112076    
    0.2303288904401441E-01   -0.3231545636015652    
    0.3071051872535255E-01   -0.3225919370875605    
    0.3838814840669069E-01   -0.3218695073812992    
    0.4606577808802882E-01   -0.3209879823434780    
    0.5374340776936696E-01   -0.3199482242884158    
    0.6142103745070510E-01   -0.3187512482854086    
    0.6909866713204324E-01   -0.3173982201605816    
    0.7677629681338137E-01   -0.3158904542039515    
    0.8445392649471950E-01   -0.3142294105870628    
    0.9213155617605764E-01   -0.3124166924972307    
    0.9980918585739579E-01   -0.3104540429950781    
    0.1074868155387339       -0.3083433416026985    
    0.1151644452200720       -0.3060866006303897    